ITEM: TIMESTEP
0
ITEM: NUMBER OF ATOMS
12
ITEM: BOX BOUNDS pp pp pp
-71.433 71.433
-71.433 71.433
-71.433 71.433
ITEM: ATOMS id type mol x y z ix iy iz 
1 1 1 -0.931911 -0.629998 -5.79479 0 0 0 
2 2 1 -4.32143 -0.688482 -3.92353 0 0 0 
3 3 1 -7.7675 -1.3944 -2.68124 0 0 0 
5 2 1 3.18108 -0.83402 -3.17409 0 0 0 
6 3 1 6.7683 -1.80488 -2.34895 0 0 0 
4 1 1 -0.34638 0.105164 -2.27638 0 0 0 
12 3 1 7.93936 -0.334554 4.68786 0 0 0 
8 2 1 -3.15037 0.781844 3.11327 0 0 0 
9 3 1 -6.59644 0.075921 4.35556 0 0 0 
7 1 1 0.23915 0.840328 1.24202 0 0 0 
10 1 1 0.82468 1.57549 4.76042 0 0 0 
11 2 1 4.35215 0.636306 3.86271 0 0 0 
ITEM: TIMESTEP
100000
ITEM: NUMBER OF ATOMS
12
ITEM: BOX BOUNDS pp pp pp
-71.433 71.433
-71.433 71.433
-71.433 71.433
ITEM: ATOMS id type mol x y z ix iy iz 
9 3 1 -4.21666 -4.3206 3.39668 0 0 0 
11 2 1 4.59013 -5.79246 -2.10957 0 0 0 
12 3 1 8.08646 -5.20668 -2.75766 0 0 0 
6 3 1 6.72468 3.56181 -1.53641 0 0 0 
5 2 1 3.03476 2.52603 -1.908 0 0 0 
8 2 1 -0.88187 -3.48155 3.29227 0 0 0 
7 1 1 -0.0357771 -0.912924 0.254328 0 0 0 
10 1 1 1.29369 -4.63536 -0.0436056 0 0 0 
3 3 1 -7.17275 2.99754 3.55372 0 0 0 
2 2 1 -5.01109 3.57111 0.812437 0 0 0 
4 1 1 -0.909707 2.79614 -0.720711 0 0 0 
1 1 1 -3.06432 5.97679 -0.946267 0 0 0 
ITEM: TIMESTEP
200000
ITEM: NUMBER OF ATOMS
12
ITEM: BOX BOUNDS pp pp pp
-71.433 71.433
-71.433 71.433
-71.433 71.433
ITEM: ATOMS id type mol x y z ix iy iz 
2 2 1 3.50454 1.35721 -6.06343 0 0 0 
3 3 1 6.10685 -0.880147 -7.00967 0 0 0 
6 3 1 -5.64222 -1.18027 -0.124217 0 0 0 
4 1 1 -0.125465 1.62364 -3.03735 0 0 0 
1 1 1 0.0706665 3.6106 -6.44504 0 0 0 
5 2 1 -3.08107 1.40861 -1.00122 0 0 0 
12 3 1 -3.59396 -2.04926 8.62671 0 0 0 
11 2 1 -1.25826 -3.57704 6.49174 0 0 0 
10 1 1 0.114142 -3.57663 2.61065 0 0 0 
7 1 1 0.34599 -0.4294 0.275656 0 0 0 
9 3 1 1.32045 1.8095 7.60946 0 0 0 
8 2 1 1.90569 0.798955 3.9673 0 0 0 
ITEM: TIMESTEP
300000
ITEM: NUMBER OF ATOMS
12
ITEM: BOX BOUNDS pp pp pp
-71.433 71.433
-71.433 71.433
-71.433 71.433
ITEM: ATOMS id type mol x y z ix iy iz 
3 3 1 -3.29933 -5.28218 -4.30575 0 0 0 
2 2 1 -3.2041 -5.98022 -0.897232 0 0 0 
9 3 1 -5.96548 3.91374 -2.89902 0 0 0 
8 2 1 -2.962 2.02488 -2.57468 0 0 0 
7 1 1 -0.199016 0.623088 0.183343 0 0 0 
10 1 1 0.958817 4.11353 -0.950156 0 0 0 
11 2 1 4.93275 4.58743 -1.69915 0 0 0 
4 1 1 -0.559038 -2.91985 1.85862 0 0 0 
1 1 1 -1.61084 -6.51676 2.88461 0 0 0 
5 2 1 2.26455 -0.505996 3.6415 0 0 0 
6 3 1 3.87036 2.77412 3.42002 0 0 0 
12 3 1 7.04185 7.31903 -2.20717 0 0 0 
ITEM: TIMESTEP
400000
ITEM: NUMBER OF ATOMS
12
ITEM: BOX BOUNDS pp pp pp
-71.433 71.433
-71.433 71.433
-71.433 71.433
ITEM: ATOMS id type mol x y z ix iy iz 
12 3 1 -10.4261 1.3086 2.58504 0 0 0 
3 3 1 7.89639 -4.16908 3.5551 0 0 0 
4 1 1 2.98764 -0.385495 -1.29081 0 0 0 
1 1 1 6.84114 -0.518084 -2.58168 0 0 0 
2 2 1 6.60266 -3.82313 -0.0567001 0 0 0 
5 2 1 0.0227643 1.03375 -3.77209 0 0 0 
6 3 1 -1.32357 2.89836 -6.9189 0 0 0 
11 2 1 -7.00589 -0.216257 3.49133 0 0 0 
7 1 1 -0.273896 -0.292099 0.906159 0 0 0 
10 1 1 -3.10517 -1.66666 2.93525 0 0 0 
8 2 1 -3.34421 2.51949 0.816553 0 0 0 
9 3 1 -4.65089 5.82531 0.369397 0 0 0 
ITEM: TIMESTEP
500000
ITEM: NUMBER OF ATOMS
12
ITEM: BOX BOUNDS pp pp pp
-71.433 71.433
-71.433 71.433
-71.433 71.433
ITEM: ATOMS id type mol x y z ix iy iz 
3 3 1 4.45467 -2.94277 -2.0599 0 0 0 
7 1 1 -0.367992 0.583185 -0.381038 0 0 0 
10 1 1 0.382777 3.06822 -3.3148 0 0 0 
12 3 1 4.53092 0.14567 -7.4988 0 0 0 
11 2 1 2.57792 2.52759 -6.00941 0 0 0 
4 1 1 -0.42318 -2.43117 2.14727 0 0 0 
2 2 1 2.51878 -4.75162 0.11484 0 0 0 
1 1 1 0.549306 -5.74052 3.61812 0 0 0 
5 2 1 -3.19883 0.138969 3.20004 0 0 0 
6 3 1 -5.35725 2.48549 5.26818 0 0 0 
9 3 1 -3.39021 7.15451 2.27502 0 0 0 
8 2 1 -2.41333 3.79163 0.768994 0 0 0 
ITEM: TIMESTEP
600000
ITEM: NUMBER OF ATOMS
12
ITEM: BOX BOUNDS pp pp pp
-71.433 71.433
-71.433 71.433
-71.433 71.433
ITEM: ATOMS id type mol x y z ix iy iz 
8 2 1 -2.73294 -1.27026 -2.3056 0 0 0 
9 3 1 -3.16351 -4.0739 -0.342701 0 0 0 
11 2 1 -7.38751 0.0487947 -1.90597 0 0 0 
7 1 1 -1.63764 1.72245 0.261264 0 0 0 
10 1 1 -5.41719 2.41554 0.648872 0 0 0 
12 3 1 -7.47233 -1.39265 -5.46274 0 0 0 
6 3 1 3.62473 -4.7349 -1.13159 0 0 0 
5 2 1 1.69838 -1.86029 0.314518 0 0 0 
2 2 1 5.8762 -0.792201 0.760349 0 0 0 
3 3 1 8.15655 -3.30317 1.74146 0 0 0 
4 1 1 2.12839 2.09323 0.996207 0 0 0 
1 1 1 5.63871 2.95215 2.4808 0 0 0 
ITEM: TIMESTEP
700000
ITEM: NUMBER OF ATOMS
12
ITEM: BOX BOUNDS pp pp pp
-71.433 71.433
-71.433 71.433
-71.433 71.433
ITEM: ATOMS id type mol x y z ix iy iz 
11 2 1 -3.32212 -2.47916 -5.88493 0 0 0 
10 1 1 0.0232069 -0.650329 -4.28245 0 0 0 
7 1 1 -0.14222 0.13579 -0.421883 0 0 0 
12 3 1 -4.93755 -4.33085 -8.29888 0 0 0 
9 3 1 -7.22509 0.459088 -2.90335 0 0 0 
8 2 1 -3.98508 -0.617639 -1.68969 0 0 0 
4 1 1 1.45685 1.06411 3.12861 0 0 0 
1 1 1 4.0243 2.49964 5.85643 0 0 0 
6 3 1 -3.97635 -3.83332 4.40454 0 0 0 
2 2 1 6.20582 3.12434 2.49175 0 0 0 
3 3 1 9.19303 2.65163 0.0471714 0 0 0 
5 2 1 -2.12244 -0.730747 3.7435 0 0 0 
ITEM: TIMESTEP
800000
ITEM: NUMBER OF ATOMS
12
ITEM: BOX BOUNDS pp pp pp
-71.433 71.433
-71.433 71.433
-71.433 71.433
ITEM: ATOMS id type mol x y z ix iy iz 
12 3 1 3.99169 -5.38911 0.91331 0 0 0 
11 2 1 4.4094 -3.63746 -2.49668 0 0 0 
10 1 1 3.08668 -0.0403587 -4.05497 0 0 0 
7 1 1 -0.138764 1.33021 -2.37421 0 0 0 
8 2 1 0.668777 4.34395 -4.91887 0 0 0 
9 3 1 3.40311 6.44005 -5.3639 0 0 0 
6 3 1 3.58759 -0.998413 4.54856 0 0 0 
3 3 1 -1.38664 -2.97383 7.05082 0 0 0 
5 2 1 0.49365 -0.87972 2.29021 0 0 0 
2 2 1 -3.69346 -0.813141 5.11424 0 0 0 
4 1 1 -2.76121 0.629208 0.488627 0 0 0 
1 1 1 -6.25842 0.144451 2.14886 0 0 0 
ITEM: TIMESTEP
900000
ITEM: NUMBER OF ATOMS
12
ITEM: BOX BOUNDS pp pp pp
-71.433 71.433
-71.433 71.433
-71.433 71.433
ITEM: ATOMS id type mol x y z ix iy iz 
11 2 1 -5.58134 -1.86898 -3.95916 0 0 0 
10 1 1 -1.99934 -3.36317 -2.80226 0 0 0 
7 1 1 0.363323 -1.81966 -0.18398 0 0 0 
8 2 1 2.07018 -4.76068 -2.35704 0 0 0 
9 3 1 -0.347101 -6.18532 -4.53932 0 0 0 
12 3 1 -7.84067 1.09782 -4.10107 0 0 0 
4 1 1 2.52119 0.264536 2.12968 0 0 0 
1 1 1 5.14238 1.83208 4.35334 0 0 0 
6 3 1 -4.63041 2.76092 2.42603 0 0 0 
5 2 1 -1.36701 1.34676 2.01898 0 0 0 
3 3 1 2.15351 8.0065 1.30055 0 0 0 
2 2 1 4.1795 5.41596 2.58825 0 0 0 
ITEM: TIMESTEP
1000000
ITEM: NUMBER OF ATOMS
12
ITEM: BOX BOUNDS pp pp pp
-71.433 71.433
-71.433 71.433
-71.433 71.433
ITEM: ATOMS id type mol x y z ix iy iz 
1 1 1 -1.45261 -4.32254 -5.32614 0 0 0 
4 1 1 -0.630452 -1.41822 -2.94836 0 0 0 
2 2 1 -1.99485 -5.71902 -1.60948 0 0 0 
9 3 1 -1.95528 7.17329 -2.15629 0 0 0 
7 1 1 0.669175 1.05633 -0.142816 0 0 0 
3 3 1 -1.83108 -7.715 1.70467 0 0 0 
5 2 1 1.58526 -3.195 0.0750651 0 0 0 
6 3 1 4.6474 -5.09218 1.60307 0 0 0 
8 2 1 -0.990417 4.46543 0.0216202 0 0 0 
12 3 1 -1.93734 7.77718 6.12135 0 0 0 
10 1 1 2.16491 2.66174 3.02462 0 0 0 
11 2 1 1.05439 6.15294 4.46083 0 0 0 
