ITEM: TIMESTEP
0
ITEM: NUMBER OF ATOMS
30
ITEM: BOX BOUNDS pp pp pp
-96.9496 96.9496
-96.9496 96.9496
-96.9496 96.9496
ITEM: ATOMS id type mol x y z ix iy iz 
1 1 1 -2.6885 -2.83549 -16.35 0 0 0 
2 2 1 -6.07802 -2.89397 -14.4787 0 0 0 
3 3 1 -9.52409 -3.5999 -13.2364 0 0 0 
9 3 1 -8.35303 -2.12957 -6.19964 0 0 0 
4 1 1 -2.10297 -2.10033 -12.8316 0 0 0 
5 2 1 1.42449 -3.03951 -13.7293 0 0 0 
6 3 1 5.01171 -4.01037 -12.9041 0 0 0 
7 1 1 -1.51744 -1.36516 -9.31319 0 0 0 
8 2 1 -4.90696 -1.42365 -7.44193 0 0 0 
10 1 1 -0.931911 -0.629998 -5.79479 0 0 0 
11 2 1 2.59555 -1.56918 -6.69249 0 0 0 
12 3 1 6.18277 -2.54004 -5.86735 0 0 0 
15 3 1 -7.18197 -0.659241 0.837158 0 0 0 
13 1 1 -0.34638 0.105164 -2.27638 0 0 0 
14 2 1 -3.7359 0.046681 -0.405124 0 0 0 
16 1 1 0.23915 0.840328 1.24202 0 0 0 
17 2 1 3.76661 -0.098857 0.344313 0 0 0 
19 1 1 0.82468 1.57549 4.76042 0 0 0 
18 3 1 7.35383 -1.06972 1.16945 0 0 0 
21 3 1 -6.01091 0.811085 7.87396 0 0 0 
20 2 1 -2.56484 1.51701 6.63168 0 0 0 
22 1 1 1.41021 2.31066 8.27882 0 0 0 
23 2 1 4.93768 1.37147 7.38111 0 0 0 
25 1 1 1.99574 3.04582 11.7972 0 0 0 
26 2 1 -1.39377 2.98733 13.6685 0 0 0 
27 3 1 -4.83985 2.28141 14.9108 0 0 0 
24 3 1 8.52489 0.400609 8.20626 0 0 0 
29 2 1 6.10874 2.8418 14.4179 0 0 0 
30 3 1 9.69595 1.87094 15.2431 0 0 0 
28 1 1 2.58127 3.78098 15.3156 0 0 0 
ITEM: TIMESTEP
100000
ITEM: NUMBER OF ATOMS
30
ITEM: BOX BOUNDS pp pp pp
-96.9496 96.9496
-96.9496 96.9496
-96.9496 96.9496
ITEM: ATOMS id type mol x y z ix iy iz 
2 2 1 -5.61649 -14.7868 -0.812949 0 0 0 
3 3 1 -7.50299 -13.8995 2.44662 0 0 0 
1 1 1 -4.39504 -16.5481 -4.24598 0 0 0 
9 3 1 -0.342383 -6.11846 4.60998 0 0 0 
6 3 1 4.01906 -9.96369 -6.4573 0 0 0 
4 1 1 -2.16243 -13.3749 -3.2316 0 0 0 
5 2 1 1.41007 -12.4319 -5.04654 0 0 0 
12 3 1 3.5602 -3.22769 -8.48539 0 0 0 
8 2 1 -0.023436 -8.63895 1.68069 0 0 0 
7 1 1 -0.945593 -9.96195 -2.00164 0 0 0 
10 1 1 -0.021011 -6.18554 -2.26425 0 0 0 
11 2 1 2.33549 -4.35127 -4.93861 0 0 0 
15 3 1 6.45731 0.489569 -4.32464 0 0 0 
14 2 1 3.09159 -0.682583 -3.73634 0 0 0 
13 1 1 -0.0266334 -2.53359 -1.79802 0 0 0 
16 1 1 -1.34046 1.10485 -1.19018 0 0 0 
17 2 1 -4.66498 3.22017 -2.40807 0 0 0 
19 1 1 -0.360713 4.43272 0.549139 0 0 0 
20 2 1 2.38576 4.68785 3.48655 0 0 0 
22 1 1 -0.193879 8.13914 1.6852 0 0 0 
27 3 1 7.69408 9.1685 5.2496 0 0 0 
25 1 1 1.27016 11.6771 3.03 0 0 0 
28 1 1 2.04621 15.2985 4.35249 0 0 0 
26 2 1 5.26956 11.5632 3.58139 0 0 0 
21 3 1 5.31952 2.63648 5.03449 0 0 0 
29 2 1 3.26717 15.3877 8.2875 0 0 0 
30 3 1 2.71048 14.4269 11.7033 0 0 0 
18 3 1 -8.4451 3.99706 -2.05647 0 0 0 
23 2 1 -3.47057 10.5484 1.59185 0 0 0 
24 3 1 -5.82242 13.0501 0.262578 0 0 0 
ITEM: TIMESTEP
200000
ITEM: NUMBER OF ATOMS
30
ITEM: BOX BOUNDS pp pp pp
-96.9496 96.9496
-96.9496 96.9496
-96.9496 96.9496
ITEM: ATOMS id type mol x y z ix iy iz 
2 2 1 -3.23443 -8.21311 -14.3904 0 0 0 
3 3 1 -5.92304 -5.4705 -13.8406 0 0 0 
1 1 1 -4.66914 -11.7747 -13.0647 0 0 0 
6 3 1 -8.99479 -5.07726 -7.90719 0 0 0 
4 1 1 -3.50121 -9.58129 -10.0388 0 0 0 
9 3 1 4.99789 -5.10162 -6.78644 0 0 0 
8 2 1 2.00665 -5.62842 -8.99598 0 0 0 
7 1 1 -1.56864 -6.96879 -7.772 0 0 0 
5 2 1 -6.17537 -7.47459 -7.98123 0 0 0 
12 3 1 -5.25956 1.47785 -6.00284 0 0 0 
11 2 1 -2.28037 -0.840155 -5.13282 0 0 0 
10 1 1 -0.425574 -4.54725 -4.99678 0 0 0 
19 1 1 1.35383 2.1965 3.84415 0 0 0 
13 1 1 1.19838 -2.50827 -2.33237 0 0 0 
16 1 1 1.6251 -0.172814 0.68534 0 0 0 
14 2 1 4.99743 -1.80917 -1.12441 0 0 0 
17 2 1 5.08671 1.95633 0.361734 0 0 0 
15 3 1 7.92154 -1.86827 1.46284 0 0 0 
18 3 1 7.18637 3.6859 -2.31805 0 0 0 
20 2 1 -1.612 1.38119 6.43609 0 0 0 
22 1 1 1.35371 4.69877 6.85788 0 0 0 
27 3 1 8.90728 9.99405 7.00614 0 0 0 
21 3 1 -5.10687 1.88705 6.35401 0 0 0 
23 2 1 -1.79228 5.53843 9.39482 0 0 0 
24 3 1 -5.31681 6.66472 10.5926 0 0 0 
25 1 1 2.4729 7.40761 9.32809 0 0 0 
28 1 1 2.14156 9.86918 12.4074 0 0 0 
29 2 1 0.517671 9.87328 15.8276 0 0 0 
26 2 1 5.70854 9.59707 8.2518 0 0 0 
30 3 1 -1.52325 10.9549 18.4206 0 0 0 
ITEM: TIMESTEP
300000
ITEM: NUMBER OF ATOMS
30
ITEM: BOX BOUNDS pp pp pp
-96.9496 96.9496
-96.9496 96.9496
-96.9496 96.9496
ITEM: ATOMS id type mol x y z ix iy iz 
1 1 1 0.71298 -0.832113 -17.496 0 0 0 
12 3 1 -3.06183 7.63881 -5.88474 0 0 0 
2 2 1 -0.606882 2.67197 -15.6432 0 0 0 
10 1 1 -0.19279 0.506393 -6.76552 0 0 0 
7 1 1 0.285685 -1.45815 -9.94801 0 0 0 
5 2 1 1.52372 -5.72896 -12.9976 0 0 0 
4 1 1 0.544408 -1.80317 -13.8108 0 0 0 
8 2 1 -0.885283 -4.4094 -7.29245 0 0 0 
11 2 1 -2.54598 3.78923 -6.22884 0 0 0 
6 3 1 0.232912 -9.39791 -12.4375 0 0 0 
3 3 1 -2.43612 5.72225 -15.9688 0 0 0 
9 3 1 -2.98974 -6.93357 -5.4938 0 0 0 
17 2 1 2.46866 5.15258 2.33267 0 0 0 
18 3 1 5.46897 7.03347 2.88687 0 0 0 
19 1 1 0.146618 1.26974 4.65841 0 0 0 
13 1 1 0.228454 1.80476 -3.04498 0 0 0 
16 1 1 0.377911 1.94497 0.851133 0 0 0 
14 2 1 0.165162 5.9209 -2.37343 0 0 0 
15 3 1 1.28093 9.11375 -1.04063 0 0 0 
20 2 1 3.68083 2.16976 6.48408 0 0 0 
21 3 1 7.10672 1.42793 7.63147 0 0 0 
24 3 1 -5.3006 4.60854 11.7213 0 0 0 
26 2 1 -2.83865 -3.42866 14.3813 0 0 0 
23 2 1 -2.49575 2.29776 10.361 0 0 0 
25 1 1 -0.238493 -2.1381 11.5834 0 0 0 
22 1 1 -0.306993 -0.266591 8.14526 0 0 0 
27 3 1 -5.11291 -6.00453 13.5878 0 0 0 
30 3 1 -1.28808 -7.24966 20.2651 0 0 0 
29 2 1 0.709678 -5.10682 17.857 0 0 0 
28 1 1 2.11013 -3.91989 14.1479 0 0 0 
ITEM: TIMESTEP
400000
ITEM: NUMBER OF ATOMS
30
ITEM: BOX BOUNDS pp pp pp
-96.9496 96.9496
-96.9496 96.9496
-96.9496 96.9496
ITEM: ATOMS id type mol x y z ix iy iz 
27 3 1 -12.9046 -4.83665 -7.66753 0 0 0 
29 2 1 -9.18671 5.0971 -14.0091 0 0 0 
26 2 1 -11.2817 -1.84813 -8.66953 0 0 0 
25 1 1 -8.39552 0.908809 -8.26635 0 0 0 
28 1 1 -9.67814 1.82407 -11.751 0 0 0 
23 2 1 -7.36374 4.7075 -4.97486 0 0 0 
22 1 1 -5.77014 1.16115 -5.40672 0 0 0 
30 3 1 -10.2675 7.52069 -16.3223 0 0 0 
24 3 1 -6.89016 8.03247 -3.29604 0 0 0 
15 3 1 -1.3056 -9.15693 2.79198 0 0 0 
11 2 1 3.08841 -6.45034 6.15506 0 0 0 
9 3 1 8.39547 -8.94637 6.58661 0 0 0 
12 3 1 3.18196 -9.92412 6.87584 0 0 0 
18 3 1 -0.361832 5.98076 0.739834 0 0 0 
20 2 1 -2.91396 -1.86852 -7.04445 0 0 0 
21 3 1 -2.60611 -1.65988 -10.5136 0 0 0 
19 1 1 -2.84552 -0.509886 -3.34426 0 0 0 
13 1 1 1.83497 -2.83886 2.44796 0 0 0 
16 1 1 -0.168863 -1.51423 -0.642973 0 0 0 
17 2 1 -0.198713 2.64523 -0.273916 0 0 0 
14 2 1 0.131707 -6.38063 1.17011 0 0 0 
6 3 1 2.87131 4.41034 7.73969 0 0 0 
10 1 1 4.35648 -2.86093 5.53516 0 0 0 
8 2 1 7.27268 -5.58648 7.87074 0 0 0 
5 2 1 6.15206 3.35653 7.15648 0 0 0 
1 1 1 12.2146 3.6185 10.368 0 0 0 
4 1 1 9.26108 1.4626 9.14477 0 0 0 
2 2 1 10.1821 6.54808 8.46006 0 0 0 
7 1 1 7.16035 -1.49463 7.77563 0 0 0 
3 3 1 8.90613 8.82273 6.09548 0 0 0 
ITEM: TIMESTEP
500000
ITEM: NUMBER OF ATOMS
30
ITEM: BOX BOUNDS pp pp pp
-96.9496 96.9496
-96.9496 96.9496
-96.9496 96.9496
ITEM: ATOMS id type mol x y z ix iy iz 
12 3 1 -6.52716 3.71313 -7.46676 0 0 0 
11 2 1 -2.86801 4.06941 -6.62688 0 0 0 
6 3 1 0.924332 14.4799 -7.96277 0 0 0 
7 1 1 3.36952 6.83014 -5.85302 0 0 0 
5 2 1 2.52941 11.2303 -7.59683 0 0 0 
3 3 1 3.90892 14.0134 -12.3698 0 0 0 
4 1 1 6.01998 9.27929 -7.20659 0 0 0 
1 1 1 9.30163 11.2373 -8.33287 0 0 0 
2 2 1 6.36606 13.464 -9.84628 0 0 0 
23 2 1 -7.08756 -8.00164 3.86993 0 0 0 
24 3 1 -9.33697 -9.69683 1.78009 0 0 0 
22 1 1 -3.65098 -6.08188 4.96501 0 0 0 
18 3 1 -4.42123 -6.51926 -1.56037 0 0 0 
20 2 1 0.364736 -5.51686 3.82066 0 0 0 
17 2 1 -6.1427 -3.47477 -1.0207 0 0 0 
19 1 1 -2.76236 -3.92337 1.86624 0 0 0 
13 1 1 -0.906145 1.50393 -2.98206 0 0 0 
16 1 1 -2.63984 -1.45685 -1.08099 0 0 0 
10 1 1 0.441836 4.4658 -5.03706 0 0 0 
14 2 1 1.40822 0.436661 0.257592 0 0 0 
15 3 1 4.06457 -1.65903 2.04787 0 0 0 
9 3 1 8.1656 1.96508 -2.34354 0 0 0 
8 2 1 5.19815 3.83078 -3.91235 0 0 0 
28 1 1 -4.82746 -10.56 10.872 0 0 0 
29 2 1 -1.45642 -11.7145 12.8683 0 0 0 
26 2 1 -1.67465 -6.51802 11.3457 0 0 0 
25 1 1 -3.9878 -7.87786 8.28729 0 0 0 
30 3 1 2.13241 -11.3075 14.2221 0 0 0 
21 3 1 2.58411 -4.37507 6.25885 0 0 0 
27 3 1 1.11489 -4.90216 12.7842 0 0 0 
ITEM: TIMESTEP
600000
ITEM: NUMBER OF ATOMS
30
ITEM: BOX BOUNDS pp pp pp
-96.9496 96.9496
-96.9496 96.9496
-96.9496 96.9496
ITEM: ATOMS id type mol x y z ix iy iz 
1 1 1 1.84129 -17.0905 -5.02925 0 0 0 
2 2 1 -0.650794 -15.2077 -7.86138 0 0 0 
8 2 1 -2.35228 -8.2278 -3.04437 0 0 0 
4 1 1 2.51184 -13.2621 -4.55195 0 0 0 
3 3 1 -1.38334 -13.3044 -11.0389 0 0 0 
9 3 1 -6.1284 -8.64346 -3.37336 0 0 0 
7 1 1 1.43108 -9.68008 -3.19637 0 0 0 
5 2 1 5.48302 -10.5417 -5.30845 0 0 0 
10 1 1 1.61097 -6.07467 -1.78156 0 0 0 
6 3 1 5.7863 -6.99835 -6.70107 0 0 0 
11 2 1 4.0511 -5.27516 1.23136 0 0 0 
15 3 1 -0.0491568 0.91375 -8.08191 0 0 0 
14 2 1 0.15541 -0.0959602 -4.51229 0 0 0 
19 1 1 0.0907875 5.03257 0.534404 0 0 0 
13 1 1 1.15971 -2.29625 -1.21739 0 0 0 
16 1 1 0.910542 1.36474 0.0442836 0 0 0 
17 2 1 1.11893 1.90765 3.68378 0 0 0 
18 3 1 0.46463 2.22849 7.38749 0 0 0 
20 2 1 0.295395 8.27754 -1.80645 0 0 0 
22 1 1 -0.666545 7.87397 2.98087 0 0 0 
23 2 1 -2.12832 6.94553 6.51007 0 0 0 
26 2 1 -0.453231 14.1718 2.76637 0 0 0 
25 1 1 -0.989931 11.1732 4.8298 0 0 0 
24 3 1 -4.8218 5.43405 8.46511 0 0 0 
12 3 1 4.95687 -3.83821 4.59285 0 0 0 
21 3 1 -1.41215 10.3975 -4.52936 0 0 0 
29 2 1 -4.62964 12.7942 10.607 0 0 0 
30 3 1 -7.71017 10.884 11.2997 0 0 0 
28 1 1 -2.08576 13.5922 7.53103 0 0 0 
27 3 1 -1.51651 15.9228 -0.503961 0 0 0 
ITEM: TIMESTEP
700000
ITEM: NUMBER OF ATOMS
30
ITEM: BOX BOUNDS pp pp pp
-96.9496 96.9496
-96.9496 96.9496
-96.9496 96.9496
ITEM: ATOMS id type mol x y z ix iy iz 
28 1 1 -15.4461 0.916958 -4.0424 0 0 0 
18 3 1 -0.46389 -0.190723 -9.83946 0 0 0 
21 3 1 -4.86166 0.982747 -9.7893 0 0 0 
20 2 1 -5.34978 -0.17039 -6.4999 0 0 0 
6 3 1 11.0696 -6.84478 0.0203809 0 0 0 
27 3 1 -12.9351 8.30113 -0.594766 0 0 0 
26 2 1 -13.1818 4.66825 -1.70838 0 0 0 
25 1 1 -11.5719 1.31861 -3.40579 0 0 0 
23 2 1 -9.06852 2.73946 -0.135512 0 0 0 
24 3 1 -8.72879 4.75311 2.72542 0 0 0 
22 1 1 -7.745 0.633709 -3.33165 0 0 0 
19 1 1 -3.93778 -0.406824 -3.32129 0 0 0 
13 1 1 2.80877 -0.545182 -0.258776 0 0 0 
16 1 1 -0.101428 -0.84346 -2.70163 0 0 0 
14 2 1 -0.61487 -0.649435 1.96312 0 0 0 
17 2 1 -0.383587 -1.12752 -6.35043 0 0 0 
10 1 1 6.05233 -0.556809 1.99905 0 0 0 
7 1 1 8.57777 -1.1052 4.90434 0 0 0 
11 2 1 7.66723 -0.135527 -1.76584 0 0 0 
12 3 1 10.5812 -0.0535583 -4.1267 0 0 0 
5 2 1 11.1556 -4.08263 2.81033 0 0 0 
4 1 1 12.0742 -2.16626 6.34232 0 0 0 
2 2 1 16.1237 -4.06728 4.21274 0 0 0 
3 3 1 16.1157 -6.19954 1.18745 0 0 0 
1 1 1 15.5059 -2.71551 8.02766 0 0 0 
30 3 1 -16.8017 4.6925 1.94523 0 0 0 
29 2 1 -17.1535 4.11525 -1.9199 0 0 0 
15 3 1 -3.57519 1.64866 3.19968 0 0 0 
9 3 1 3.42749 2.02102 9.7284 0 0 0 
8 2 1 5.14229 -0.0749636 6.95142 0 0 0 
ITEM: TIMESTEP
800000
ITEM: NUMBER OF ATOMS
30
ITEM: BOX BOUNDS pp pp pp
-96.9496 96.9496
-96.9496 96.9496
-96.9496 96.9496
ITEM: ATOMS id type mol x y z ix iy iz 
9 3 1 5.07218 1.66782 -12.5611 0 0 0 
12 3 1 0.548082 4.35492 -8.64232 0 0 0 
8 2 1 5.92808 3.01395 -9.12284 0 0 0 
4 1 1 11.4754 -0.549086 -6.45189 0 0 0 
7 1 1 7.8529 0.549145 -6.45771 0 0 0 
5 2 1 11.2775 2.54318 -9.11498 0 0 0 
6 3 1 12.3105 2.29891 -12.775 0 0 0 
1 1 1 14.328 -2.83504 -5.12238 0 0 0 
2 2 1 11.0696 -5.06715 -5.89999 0 0 0 
15 3 1 4.52222 -0.651001 4.15416 0 0 0 
23 2 1 -10.8905 2.7204 4.23511 0 0 0 
18 3 1 -9.63826 1.71897 -2.43693 0 0 0 
24 3 1 -13.3721 4.49752 2.43806 0 0 0 
11 2 1 0.742816 0.973291 -7.2958 0 0 0 
10 1 1 4.1105 0.772794 -5.09514 0 0 0 
19 1 1 -4.49853 0.451563 2.32107 0 0 0 
17 2 1 -5.82687 1.28383 -2.2264 0 0 0 
13 1 1 1.25185 0.920736 -2.56133 0 0 0 
16 1 1 -2.28702 0.864069 -0.930119 0 0 0 
14 2 1 2.18304 -0.349902 1.21274 0 0 0 
3 3 1 7.97173 -5.1633 -3.72792 0 0 0 
30 3 1 -4.18814 -6.65683 12.7587 0 0 0 
27 3 1 -15.2155 -0.583447 9.09626 0 0 0 
22 1 1 -7.19082 1.12414 5.17011 0 0 0 
29 2 1 -6.35127 -3.77102 13.6362 0 0 0 
26 2 1 -11.5645 -0.817586 9.44621 0 0 0 
25 1 1 -7.87305 0.472945 8.93633 0 0 0 
28 1 1 -7.78901 -0.0823722 12.8642 0 0 0 
21 3 1 -0.0872258 -3.05229 7.17657 0 0 0 
20 2 1 -2.28355 -2.17824 4.60482 0 0 0 
ITEM: TIMESTEP
900000
ITEM: NUMBER OF ATOMS
30
ITEM: BOX BOUNDS pp pp pp
-96.9496 96.9496
-96.9496 96.9496
-96.9496 96.9496
ITEM: ATOMS id type mol x y z ix iy iz 
6 3 1 13.2271 -2.21889 -4.03748 0 0 0 
5 2 1 12.8065 -4.66706 -1.30651 0 0 0 
1 1 1 14.5389 -10.8101 -0.274061 0 0 0 
11 2 1 4.99309 -2.282 -5.37538 0 0 0 
12 3 1 6.60107 0.917512 -6.61128 0 0 0 
4 1 1 11.6155 -8.46105 -0.277453 0 0 0 
8 2 1 5.09297 -7.28391 1.4115 0 0 0 
7 1 1 8.24897 -6.39629 -0.785493 0 0 0 
2 2 1 11.145 -12.9757 -0.108114 0 0 0 
3 3 1 7.40943 -12.3922 0.657629 0 0 0 
21 3 1 -8.11155 0.436346 5.65147 0 0 0 
17 2 1 -2.05318 0.178739 2.93613 0 0 0 
20 2 1 -6.53063 1.63469 2.48698 0 0 0 
18 3 1 -2.01488 -0.058367 6.3397 0 0 0 
19 1 1 -3.66887 3.28586 0.0348186 0 0 0 
13 1 1 2.1995 -1.47597 -1.86029 0 0 0 
16 1 1 -0.573464 0.961467 -0.71165 0 0 0 
14 2 1 -0.0087805 -0.918737 -5.32166 0 0 0 
10 1 1 5.35399 -3.89795 -1.85775 0 0 0 
30 3 1 -16.0981 5.29726 8.65896 0 0 0 
29 2 1 -13.9577 7.86669 7.07443 0 0 0 
22 1 1 -6.40282 5.90866 0.543672 0 0 0 
25 1 1 -9.36604 8.01853 1.67829 0 0 0 
28 1 1 -11.9968 9.55643 3.90516 0 0 0 
26 2 1 -9.62467 11.7924 0.353822 0 0 0 
27 3 1 -9.17463 14.7674 -1.95775 0 0 0 
23 2 1 -6.58658 8.91715 -2.06728 0 0 0 
24 3 1 -9.22116 9.90906 -4.57125 0 0 0 
9 3 1 3.87379 -9.79909 3.5465 0 0 0 
15 3 1 -0.60676 -2.83651 -8.50253 0 0 0 
ITEM: TIMESTEP
1000000
ITEM: NUMBER OF ATOMS
30
ITEM: BOX BOUNDS pp pp pp
-96.9496 96.9496
-96.9496 96.9496
-96.9496 96.9496
ITEM: ATOMS id type mol x y z ix iy iz 
18 3 1 -3.80119 4.36557 -6.4635 0 0 0 
12 3 1 4.07424 3.04952 -6.53065 0 0 0 
3 3 1 16.3017 -0.961407 -5.37668 0 0 0 
21 3 1 -5.14956 -5.45262 4.39994 0 0 0 
24 3 1 -11.3941 -6.12427 1.31103 0 0 0 
6 3 1 12.6345 -5.3729 -4.51825 0 0 0 
30 3 1 -21.1408 0.039404 2.2365 0 0 0 
27 3 1 -16.6142 -4.95996 -0.192861 0 0 0 
29 2 1 -18.7423 1.0508 -0.253759 0 0 0 
28 1 1 -15.4813 2.69669 -1.62022 0 0 0 
26 2 1 -14.5132 -2.03161 -1.49124 0 0 0 
23 2 1 -10.5291 -2.82128 2.23001 0 0 0 
22 1 1 -8.50155 0.210474 0.457838 0 0 0 
25 1 1 -12.1277 1.11052 -0.503735 0 0 0 
20 2 1 -5.79819 -2.68971 1.8815 0 0 0 
17 2 1 -2.3848 3.86608 -2.93046 0 0 0 
13 1 1 3.02798 1.08802 0.182105 0 0 0 
19 1 1 -4.71335 0.635368 0.354877 0 0 0 
16 1 1 -0.851396 1.38731 -0.126584 0 0 0 
14 2 1 1.34998 -1.25139 3.11009 0 0 0 
11 2 1 5.47875 0.768661 -3.8737 0 0 0 
10 1 1 6.90619 0.775318 -0.0549953 0 0 0 
4 1 1 14.4268 -0.160629 0.716607 0 0 0 
7 1 1 10.6907 0.727063 0.690626 0 0 0 
5 2 1 12.8686 -2.97557 -1.66163 0 0 0 
8 2 1 9.56483 2.91561 3.68283 0 0 0 
2 2 1 18.3071 -1.0459 -2.22276 0 0 0 
1 1 1 18.2489 -0.349637 1.72423 0 0 0 
15 3 1 -0.811418 -0.0305284 6.07968 0 0 0 
9 3 1 8.31121 4.27588 7.12051 0 0 0 
