ITEM: TIMESTEP
0
ITEM: NUMBER OF ATOMS
42
ITEM: BOX BOUNDS pp pp pp
-108.456 108.456
-108.456 108.456
-108.456 108.456
ITEM: ATOMS id type mol x y z ix iy iz 
6 3 1 3.84065 -5.4807 -19.9409 0 0 0 
2 2 1 -7.24908 -4.3643 -21.5155 0 0 0 
3 3 1 -10.6951 -5.07022 -20.2732 0 0 0 
1 1 1 -3.85956 -4.30582 -23.3868 0 0 0 
4 1 1 -3.27403 -3.57065 -19.8684 0 0 0 
5 2 1 0.253431 -4.50984 -20.7661 0 0 0 
7 1 1 -2.6885 -2.83549 -16.35 0 0 0 
8 2 1 -6.07802 -2.89397 -14.4787 0 0 0 
9 3 1 -9.52409 -3.5999 -13.2364 0 0 0 
15 3 1 -8.35303 -2.12957 -6.19964 0 0 0 
10 1 1 -2.10297 -2.10033 -12.8316 0 0 0 
11 2 1 1.42449 -3.03951 -13.7293 0 0 0 
12 3 1 5.01171 -4.01037 -12.9041 0 0 0 
13 1 1 -1.51744 -1.36516 -9.31319 0 0 0 
14 2 1 -4.90696 -1.42365 -7.44193 0 0 0 
16 1 1 -0.931911 -0.629998 -5.79479 0 0 0 
17 2 1 2.59555 -1.56918 -6.69249 0 0 0 
18 3 1 6.18277 -2.54004 -5.86735 0 0 0 
21 3 1 -7.18197 -0.659241 0.837158 0 0 0 
19 1 1 -0.34638 0.105164 -2.27638 0 0 0 
20 2 1 -3.7359 0.046681 -0.405124 0 0 0 
22 1 1 0.23915 0.840328 1.24202 0 0 0 
23 2 1 3.76661 -0.098857 0.344313 0 0 0 
25 1 1 0.82468 1.57549 4.76042 0 0 0 
24 3 1 7.35383 -1.06972 1.16945 0 0 0 
27 3 1 -6.01091 0.811085 7.87396 0 0 0 
26 2 1 -2.56484 1.51701 6.63168 0 0 0 
28 1 1 1.41021 2.31066 8.27882 0 0 0 
29 2 1 4.93768 1.37147 7.38111 0 0 0 
31 1 1 1.99574 3.04582 11.7972 0 0 0 
32 2 1 -1.39377 2.98733 13.6685 0 0 0 
33 3 1 -4.83985 2.28141 14.9108 0 0 0 
34 1 1 2.58127 3.78098 15.3156 0 0 0 
30 3 1 8.52489 0.400609 8.20626 0 0 0 
35 2 1 6.10874 2.8418 14.4179 0 0 0 
36 3 1 9.69595 1.87094 15.2431 0 0 0 
37 1 1 3.1668 4.51615 18.834 0 0 0 
38 2 1 -0.222713 4.45766 20.7053 0 0 0 
39 3 1 -3.66878 3.75174 21.9476 0 0 0 
41 2 1 7.2798 4.31212 21.4547 0 0 0 
42 3 1 10.867 3.34126 22.2798 0 0 0 
40 1 1 3.75233 5.25131 22.3524 0 0 0 
ITEM: TIMESTEP
100000
ITEM: NUMBER OF ATOMS
42
ITEM: BOX BOUNDS pp pp pp
-108.456 108.456
-108.456 108.456
-108.456 108.456
ITEM: ATOMS id type mol x y z ix iy iz 
12 3 1 3.51936 -7.96388 -6.26602 0 0 0 
11 2 1 6.86642 -6.1039 -6.81474 0 0 0 
5 2 1 10.7642 -12.0691 -10.5177 0 0 0 
6 3 1 8.60975 -14.4417 -11.9828 0 0 0 
1 1 1 17.1783 -12.2469 -12.3796 0 0 0 
4 1 1 14.3514 -10.4584 -10.3989 0 0 0 
2 2 1 19.3245 -8.76801 -12.337 0 0 0 
3 3 1 21.3108 -5.98074 -11.1562 0 0 0 
7 1 1 13.0751 -7.79878 -8.00302 0 0 0 
10 1 1 10.851 -5.77596 -5.77217 0 0 0 
8 2 1 15.1047 -5.08622 -7.05075 0 0 0 
9 3 1 18.6201 -3.70816 -7.15907 0 0 0 
18 3 1 -1.25311 -3.70235 -4.14724 0 0 0 
17 2 1 2.48307 -2.73433 -4.19699 0 0 0 
21 3 1 -3.72137 -2.05165 -0.465356 0 0 0 
20 2 1 -0.157345 -1.26595 0.245517 0 0 0 
39 3 1 -19.1829 5.95408 -0.32146 0 0 0 
28 1 1 -5.45134 6.35359 4.1714 0 0 0 
26 2 1 -4.86149 1.55313 3.76779 0 0 0 
27 3 1 -6.74585 -1.45289 3.7035 0 0 0 
16 1 1 5.95945 -1.29382 -2.57514 0 0 0 
15 3 1 14.2654 0.0251905 -0.578751 0 0 0 
25 1 1 -2.53745 4.6959 2.53636 0 0 0 
19 1 1 3.15919 0.775821 -0.843201 0 0 0 
22 1 1 0.842431 3.28753 0.862526 0 0 0 
23 2 1 1.31276 7.20018 1.55595 0 0 0 
13 1 1 9.04684 -3.25447 -3.49496 0 0 0 
14 2 1 10.5745 -0.99334 -0.55056 0 0 0 
38 2 1 -18.7843 5.87321 3.10303 0 0 0 
24 3 1 0.847784 8.61406 4.96311 0 0 0 
29 2 1 -5.7204 10.4115 4.5747 0 0 0 
40 1 1 -19.9334 4.43516 7.38146 0 0 0 
41 2 1 -20.6791 3.78948 11.2234 0 0 0 
37 1 1 -16.2307 5.05262 6.24698 0 0 0 
42 3 1 -20.2927 2.09683 14.3752 0 0 0 
33 3 1 -9.21234 9.63896 12.5134 0 0 0 
36 3 1 -13.5058 4.73463 14.2983 0 0 0 
31 1 1 -8.50442 6.00599 6.33053 0 0 0 
32 2 1 -9.31322 7.08702 9.64975 0 0 0 
35 2 1 -13.8884 5.26626 10.5971 0 0 0 
34 1 1 -12.2785 5.36648 6.89969 0 0 0 
30 3 1 -4.38439 13.315 6.06436 0 0 0 
ITEM: TIMESTEP
200000
ITEM: NUMBER OF ATOMS
42
ITEM: BOX BOUNDS pp pp pp
-108.456 108.456
-108.456 108.456
-108.456 108.456
ITEM: ATOMS id type mol x y z ix iy iz 
30 3 1 -4.64605 -5.615 -6.87428 0 0 0 
27 3 1 -9.29502 -0.621612 7.64792 0 0 0 
24 3 1 -11.5238 4.93912 0.397863 0 0 0 
9 3 1 11.3095 1.13386 -3.94204 0 0 0 
12 3 1 3.81651 1.80807 -0.10855 0 0 0 
3 3 1 16.6795 1.69301 -0.798228 0 0 0 
40 1 1 -6.87027 -19.0411 -1.36661 0 0 0 
41 2 1 -7.46634 -21.3947 -4.76717 0 0 0 
42 3 1 -8.20347 -25.0504 -5.3433 0 0 0 
37 1 1 -6.35106 -15.3162 -0.327228 0 0 0 
36 3 1 -1.41674 -12.3603 -6.73301 0 0 0 
34 1 1 -6.02239 -11.5187 -0.912675 0 0 0 
31 1 1 -6.36645 -7.69794 -0.265516 0 0 0 
35 2 1 -2.67969 -12.641 -3.12715 0 0 0 
29 2 1 -4.16741 -5.02601 -3.26749 0 0 0 
32 2 1 -8.43756 -9.13492 2.91262 0 0 0 
28 1 1 -5.89975 -4.04083 0.385574 0 0 0 
26 2 1 -7.03516 -1.32263 4.6474 0 0 0 
21 3 1 -10.0046 9.76507 1.18361 0 0 0 
23 2 1 -8.65593 4.04323 2.49047 0 0 0 
25 1 1 -5.61682 -0.34435 1.58843 0 0 0 
22 1 1 -4.77766 3.39009 1.58795 0 0 0 
19 1 1 -2.74166 6.76455 1.09699 0 0 0 
20 2 1 -6.67426 7.8528 1.52452 0 0 0 
17 2 1 -2.4493 11.5729 0.878565 0 0 0 
16 1 1 0.471346 8.81624 0.583402 0 0 0 
14 2 1 2.26933 12.968 -0.813948 0 0 0 
11 2 1 5.49468 4.93006 -1.4175 0 0 0 
8 2 1 11.0051 4.51075 -2.14348 0 0 0 
13 1 1 4.16588 9.43149 -0.226019 0 0 0 
10 1 1 7.87985 8.03451 -0.38586 0 0 0 
7 1 1 11.8149 8.13559 -0.322154 0 0 0 
5 2 1 12.9392 12.4267 0.507825 0 0 0 
4 1 1 15.4459 9.18483 -0.0404515 0 0 0 
2 2 1 17.9239 4.85862 -0.0069703 0 0 0 
1 1 1 19.1545 8.69611 -0.591298 0 0 0 
39 3 1 -7.07923 -14.468 5.87985 0 0 0 
38 2 1 -8.11743 -16.6999 3.18346 0 0 0 
33 3 1 -8.86653 -9.76905 6.23889 0 0 0 
18 3 1 -2.2548 15.3702 1.17422 0 0 0 
15 3 1 0.945607 15.4736 -2.90822 0 0 0 
6 3 1 9.55431 12.2255 2.08364 0 0 0 
ITEM: TIMESTEP
300000
ITEM: NUMBER OF ATOMS
42
ITEM: BOX BOUNDS pp pp pp
-108.456 108.456
-108.456 108.456
-108.456 108.456
ITEM: ATOMS id type mol x y z ix iy iz 
24 3 1 10.2061 -1.87661 2.77753 0 0 0 
17 2 1 5.86785 4.45865 0.148881 0 0 0 
18 3 1 9.38268 3.35534 0.098531 0 0 0 
11 2 1 3.44944 9.94368 -5.75678 0 0 0 
12 3 1 2.45298 7.73824 -8.2726 0 0 0 
6 3 1 -0.75377 13.1448 -10.8074 0 0 0 
42 3 1 -13.0089 -21.3866 -0.889914 0 0 0 
36 3 1 -9.88651 -16.1456 -1.01074 0 0 0 
35 2 1 -6.4361 -15.6945 0.425904 0 0 0 
32 2 1 -2.18197 -12.728 6.46148 0 0 0 
26 2 1 4.94319 -7.28796 3.71829 0 0 0 
29 2 1 0.896667 -10.4184 -1.1273 0 0 0 
31 1 1 -1.46238 -11.3168 2.86994 0 0 0 
28 1 1 0.558414 -8.18698 1.84673 0 0 0 
34 1 1 -3.25366 -14.8138 2.83705 0 0 0 
27 3 1 7.76253 -7.16311 6.43364 0 0 0 
30 3 1 2.33735 -13.1201 -3.44056 0 0 0 
25 1 1 2.22871 -4.63982 2.07145 0 0 0 
23 2 1 6.44117 -2.14014 3.50915 0 0 0 
22 1 1 3.00273 -0.790953 2.02065 0 0 0 
19 1 1 2.35844 3.00125 1.53207 0 0 0 
20 2 1 -0.59362 2.01936 3.24002 0 0 0 
21 3 1 -3.87054 3.17002 3.10059 0 0 0 
16 1 1 3.05486 6.57588 0.421072 0 0 0 
13 1 1 2.00264 10.1733 -0.672646 0 0 0 
10 1 1 2.03654 12.8902 -3.3058 0 0 0 
14 2 1 0.597535 10.3037 3.15737 0 0 0 
9 3 1 -2.01515 17.7768 2.02065 0 0 0 
15 3 1 -0.748774 12.5435 5.71342 0 0 0 
8 2 1 0.738274 17.0941 -0.555071 0 0 0 
1 1 1 0.506311 22.2351 -9.57542 0 0 0 
4 1 1 0.68667 19.0163 -7.39675 0 0 0 
7 1 1 1.1762 16.3703 -4.59969 0 0 0 
2 2 1 -2.09043 23.0529 -6.69326 0 0 0 
3 3 1 -3.33531 26.1677 -5.34105 0 0 0 
5 2 1 -0.479246 16.1154 -8.8674 0 0 0 
38 2 1 -2.40186 -21.5626 5.06275 0 0 0 
41 2 1 -10.452 -20.8249 1.28751 0 0 0 
40 1 1 -6.59372 -21.4263 2.68893 0 0 0 
37 1 1 -4.11088 -18.5039 3.30969 0 0 0 
33 3 1 -1.63506 -13.5042 10.2062 0 0 0 
39 3 1 0.649307 -23.1351 6.70012 0 0 0 
ITEM: TIMESTEP
400000
ITEM: NUMBER OF ATOMS
42
ITEM: BOX BOUNDS pp pp pp
-108.456 108.456
-108.456 108.456
-108.456 108.456
ITEM: ATOMS id type mol x y z ix iy iz 
21 3 1 2.22847 -1.72367 -5.33824 0 0 0 
6 3 1 10.3092 18.4152 -3.95365 0 0 0 
12 3 1 11.9819 9.68296 -4.3641 0 0 0 
4 1 1 3.98909 19.8714 -6.47152 0 0 0 
1 1 1 3.35997 23.4851 -7.95087 0 0 0 
2 2 1 7.05472 24.6019 -6.97215 0 0 0 
3 3 1 10.6353 23.902 -6.07236 0 0 0 
5 2 1 6.66323 19.6015 -3.97947 0 0 0 
42 3 1 -7.83114 -24.0237 -1.33636 0 0 0 
41 2 1 -7.42584 -23.5774 2.43105 0 0 0 
40 1 1 -6.54223 -21.9119 5.91913 0 0 0 
33 3 1 2.4025 -16.5858 2.51788 0 0 0 
34 1 1 -4.68558 -14.4809 5.19994 0 0 0 
26 2 1 1.66329 -7.74229 0.219676 0 0 0 
28 1 1 -2.126 -7.58583 3.1732 0 0 0 
31 1 1 -2.94283 -11.2277 4.12412 0 0 0 
27 3 1 4.375 -10.1787 0.118169 0 0 0 
32 2 1 -0.541775 -14.1873 2.87669 0 0 0 
23 2 1 -2.5936 -1.77582 4.21013 0 0 0 
24 3 1 -4.40649 0.196463 6.35879 0 0 0 
25 1 1 -0.376868 -4.5563 1.74443 0 0 0 
19 1 1 1.7268 2.80976 0.411861 0 0 0 
22 1 1 0.222306 -0.733865 1.54205 0 0 0 
20 2 1 2.32587 0.156315 -2.3132 0 0 0 
15 3 1 0.509888 3.98271 -7.44787 0 0 0 
18 3 1 0.111675 9.24183 6.37924 0 0 0 
17 2 1 1.62953 7.33326 3.4873 0 0 0 
10 1 1 4.77439 12.4511 -4.76765 0 0 0 
16 1 1 2.59549 6.63768 -0.400095 0 0 0 
13 1 1 3.45289 9.01308 -3.50645 0 0 0 
14 2 1 2.04866 5.98171 -5.04641 0 0 0 
11 2 1 8.28135 10.3968 -4.84472 0 0 0 
8 2 1 1.45916 14.0267 -7.69925 0 0 0 
9 3 1 -1.20002 11.2481 -7.47712 0 0 0 
7 1 1 4.06263 16.0426 -5.95316 0 0 0 
38 2 1 -6.89587 -19.904 9.65138 0 0 0 
39 3 1 -9.86336 -20.0593 12.0883 0 0 0 
37 1 1 -5.62061 -18.0657 6.18706 0 0 0 
30 3 1 -9.43418 -7.60363 2.31266 0 0 0 
29 2 1 -6.14492 -8.02455 3.67756 0 0 0 
35 2 1 -8.76808 -13.6735 5.75936 0 0 0 
36 3 1 -12.1605 -11.9836 6.19894 0 0 0 
ITEM: TIMESTEP
500000
ITEM: NUMBER OF ATOMS
42
ITEM: BOX BOUNDS pp pp pp
-108.456 108.456
-108.456 108.456
-108.456 108.456
ITEM: ATOMS id type mol x y z ix iy iz 
8 2 1 -0.662223 14.1435 -6.67628 0 0 0 
4 1 1 3.64441 18.8405 -9.24573 0 0 0 
1 1 1 3.82549 21.5345 -11.9187 0 0 0 
7 1 1 2.89446 15.9619 -6.70703 0 0 0 
5 2 1 6.95085 17.4896 -7.40251 0 0 0 
6 3 1 8.03886 15.5245 -10.133 0 0 0 
3 3 1 11.1576 21.507 -10.958 0 0 0 
2 2 1 7.53571 21.4397 -10.5128 0 0 0 
35 2 1 -6.13493 -18.12 4.39291 0 0 0 
33 3 1 -9.08559 -14.8512 0.839408 0 0 0 
30 3 1 -5.89366 -9.54046 -4.09167 0 0 0 
29 2 1 -5.41193 -8.89935 -0.41357 0 0 0 
32 2 1 -5.84774 -13.5233 0.48093 0 0 0 
28 1 1 -2.24201 -8.14765 1.94114 0 0 0 
31 1 1 -3.14951 -11.7521 2.96957 0 0 0 
34 1 1 -3.58682 -15.2237 4.52927 0 0 0 
24 3 1 -4.90133 -3.70834 -5.08396 0 0 0 
25 1 1 -0.960226 -4.41184 1.66111 0 0 0 
22 1 1 -0.310946 -0.984026 0.167807 0 0 0 
19 1 1 0.648429 2.56153 -0.433037 0 0 0 
23 2 1 -3.33125 -2.34691 -2.31588 0 0 0 
20 2 1 2.77343 0.979247 2.2723 0 0 0 
15 3 1 -6.49963 10.0118 -2.31168 0 0 0 
11 2 1 4.85003 13.1579 -0.933119 0 0 0 
17 2 1 3.44661 5.4934 1.69104 0 0 0 
10 1 1 2.57835 13.3559 -3.83833 0 0 0 
13 1 1 1.16055 10.2079 -2.17337 0 0 0 
16 1 1 1.05717 6.4918 -0.928865 0 0 0 
14 2 1 -2.80592 9.45634 -1.72295 0 0 0 
9 3 1 -1.18527 14.8768 -3.27735 0 0 0 
12 3 1 6.52241 10.8805 1.1475 0 0 0 
36 3 1 -8.99445 -19.0847 6.5071 0 0 0 
38 2 1 -3.509 -20.8565 7.08012 0 0 0 
39 3 1 -5.11033 -23.8243 5.65439 0 0 0 
40 1 1 0.145202 -19.4529 9.6097 0 0 0 
37 1 1 -2.06465 -17.6248 6.93583 0 0 0 
41 2 1 2.37447 -17.1025 11.7536 0 0 0 
26 2 1 -0.0125443 -5.8281 5.33266 0 0 0 
27 3 1 -1.11559 -8.25292 7.65222 0 0 0 
42 3 1 2.15468 -14.6069 14.2628 0 0 0 
21 3 1 3.08874 -1.10103 5.56919 0 0 0 
18 3 1 4.76083 5.20069 5.25573 0 0 0 
ITEM: TIMESTEP
600000
ITEM: NUMBER OF ATOMS
42
ITEM: BOX BOUNDS pp pp pp
-108.456 108.456
-108.456 108.456
-108.456 108.456
ITEM: ATOMS id type mol x y z ix iy iz 
8 2 1 4.50506 14.4487 -8.06144 0 0 0 
5 2 1 -0.422728 18.6708 -1.60309 0 0 0 
4 1 1 1.45556 19.7249 -5.24151 0 0 0 
2 2 1 5.11816 22.3519 -6.65334 0 0 0 
3 3 1 8.34596 21.2135 -7.38075 0 0 0 
1 1 1 1.10365 23.3374 -6.53412 0 0 0 
35 2 1 -4.3163 -14.6997 0.696352 0 0 0 
36 3 1 -4.97119 -18.38 -0.145125 0 0 0 
32 2 1 -5.08679 -10.9639 8.94187 0 0 0 
30 3 1 0.710662 -11.6883 -0.770189 0 0 0 
31 1 1 -3.17193 -9.79058 5.53271 0 0 0 
28 1 1 -1.06924 -6.62627 4.4762 0 0 0 
29 2 1 -0.629964 -9.68033 1.98773 0 0 0 
26 2 1 -2.35156 -2.21735 4.55558 0 0 0 
34 1 1 -4.49162 -13.4539 4.61534 0 0 0 
23 2 1 5.49369 -4.97103 1.4954 0 0 0 
25 1 1 1.03435 -3.66514 2.83245 0 0 0 
19 1 1 4.56947 1.46625 -1.3552 0 0 0 
22 1 1 3.47545 -1.57447 0.690639 0 0 0 
20 2 1 7.21567 -1.03729 -1.48842 0 0 0 
21 3 1 8.31242 -4.29754 -2.85958 0 0 0 
24 3 1 4.04623 -7.95921 0.352749 0 0 0 
14 2 1 7.70663 8.17315 -4.57825 0 0 0 
17 2 1 0.259017 2.78047 -2.225 0 0 0 
18 3 1 -2.634 1.24281 -3.32958 0 0 0 
16 1 1 3.70986 4.92974 -2.6957 0 0 0 
13 1 1 3.8057 8.61972 -3.83241 0 0 0 
10 1 1 2.58589 12.3394 -3.78827 0 0 0 
11 2 1 0.0408545 11.0982 -1.22017 0 0 0 
12 3 1 -1.47872 10.8314 1.89377 0 0 0 
15 3 1 10.5861 7.94719 -2.26579 0 0 0 
9 3 1 6.15999 16.132 -10.9662 0 0 0 
6 3 1 -2.49294 15.834 0.212336 0 0 0 
7 1 1 2.36305 15.9711 -4.95103 0 0 0 
42 3 1 -8.3155 -23.4341 -2.17645 0 0 0 
39 3 1 -7.13934 -17.4304 12.6898 0 0 0 
38 2 1 -7.71709 -17.5615 9.09863 0 0 0 
40 1 1 -7.83946 -20.2885 4.36933 0 0 0 
37 1 1 -6.42385 -16.7791 5.225 0 0 0 
41 2 1 -9.40104 -20.9651 0.536873 0 0 0 
33 3 1 -7.72709 -10.7723 11.4313 0 0 0 
27 3 1 -5.89028 -1.52462 3.10166 0 0 0 
ITEM: TIMESTEP
700000
ITEM: NUMBER OF ATOMS
42
ITEM: BOX BOUNDS pp pp pp
-108.456 108.456
-108.456 108.456
-108.456 108.456
ITEM: ATOMS id type mol x y z ix iy iz 
1 1 1 5.25791 20.8263 -9.36091 0 0 0 
15 3 1 -7.0843 6.78783 -9.45673 0 0 0 
17 2 1 0.169011 0.359883 -6.91243 0 0 0 
16 1 1 -0.184387 3.91397 -5.06369 0 0 0 
12 3 1 -4.56388 8.13816 -14.0688 0 0 0 
10 1 1 0.46898 10.6189 -9.09789 0 0 0 
7 1 1 1.47802 14.2533 -9.96137 0 0 0 
8 2 1 -1.58769 13.4366 -11.7535 0 0 0 
11 2 1 -1.87821 8.53379 -11.8129 0 0 0 
14 2 1 -3.66569 5.08031 -8.77141 0 0 0 
13 1 1 -0.259784 7.08328 -7.43552 0 0 0 
6 3 1 -1.07 16.8504 -16.1604 0 0 0 
3 3 1 0.949615 24.3804 -13.9552 0 0 0 
2 2 1 2.77947 21.8687 -12.3375 0 0 0 
9 3 1 -5.00873 12.9047 -12.5254 0 0 0 
5 2 1 0.173034 17.8293 -12.9147 0 0 0 
4 1 1 2.90798 17.8497 -10.067 0 0 0 
30 3 1 -6.61763 -4.59828 11.2816 0 0 0 
28 1 1 -1.8262 -6.4314 5.93032 0 0 0 
29 2 1 -4.95333 -6.64454 8.52585 0 0 0 
24 3 1 -5.88702 -0.435814 7.2674 0 0 0 
22 1 1 -1.32277 -0.669694 1.19501 0 0 0 
19 1 1 -0.498388 1.50074 -2.10509 0 0 0 
25 1 1 -1.01977 -4.02555 3.10967 0 0 0 
20 2 1 2.02584 -1.09786 -1.56504 0 0 0 
23 2 1 -3.32076 -0.265855 4.77344 0 0 0 
18 3 1 1.23071 -2.93033 -7.01015 0 0 0 
21 3 1 2.54159 -4.79542 -1.8993 0 0 0 
38 2 1 3.35401 -17.5781 11.2523 0 0 0 
39 3 1 6.57458 -17.9507 9.41809 0 0 0 
37 1 1 0.925269 -15.1217 12.6356 0 0 0 
35 2 1 -3.79244 -13.8069 13.1549 0 0 0 
32 2 1 2.07342 -10.94 7.73093 0 0 0 
31 1 1 -1.71082 -9.47485 8.2677 0 0 0 
34 1 1 -0.864626 -12.4721 10.5665 0 0 0 
33 3 1 5.46596 -9.48911 8.36436 0 0 0 
27 3 1 2.8691 -9.58394 0.172647 0 0 0 
26 2 1 1.46813 -7.1661 2.71528 0 0 0 
41 2 1 5.74971 -17.9265 16.9509 0 0 0 
42 3 1 8.9512 -16.8213 17.8819 0 0 0 
40 1 1 2.22744 -17.2475 15.4852 0 0 0 
36 3 1 -7.4809 -14.295 13.9157 0 0 0 
ITEM: TIMESTEP
800000
ITEM: NUMBER OF ATOMS
42
ITEM: BOX BOUNDS pp pp pp
-108.456 108.456
-108.456 108.456
-108.456 108.456
ITEM: ATOMS id type mol x y z ix iy iz 
6 3 1 -1.31622 18.1467 -8.44709 0 0 0 
10 1 1 1.39538 11.3478 -8.60454 0 0 0 
7 1 1 3.87692 13.8775 -9.99049 0 0 0 
5 2 1 1.24636 17.3584 -10.7199 0 0 0 
13 1 1 0.431552 8.32522 -6.49057 0 0 0 
11 2 1 -2.4787 11.057 -8.99932 0 0 0 
12 3 1 -5.11175 10.1563 -10.9939 0 0 0 
8 2 1 5.86724 12.212 -6.78184 0 0 0 
3 3 1 -0.047039 17.9133 -16.8746 0 0 0 
1 1 1 7.1418 18.9003 -14.9982 0 0 0 
4 1 1 4.93473 16.614 -12.4397 0 0 0 
2 2 1 3.4029 18.8447 -16.551 0 0 0 
9 3 1 7.98498 13.1996 -4.31727 0 0 0 
29 2 1 -1.46471 -5.66566 9.85966 0 0 0 
28 1 1 -1.45382 -6.0232 5.8453 0 0 0 
32 2 1 0.414752 -12.326 4.59945 0 0 0 
26 2 1 -4.57745 -2.62153 6.45949 0 0 0 
24 3 1 5.58737 -0.618398 4.52404 0 0 0 
20 2 1 -5.55689 2.37527 0.397892 0 0 0 
19 1 1 -2.41681 3.01536 -1.30417 0 0 0 
25 1 1 -1.54956 -2.78573 3.68912 0 0 0 
22 1 1 -1.44767 0.237953 1.11645 0 0 0 
23 2 1 2.35163 -0.671849 2.45909 0 0 0 
17 2 1 1.5464 3.51357 -2.06453 0 0 0 
16 1 1 -1.30785 5.63079 -3.99358 0 0 0 
18 3 1 4.68894 1.80318 -1.92238 0 0 0 
21 3 1 -8.79925 0.617709 1.75365 0 0 0 
14 2 1 3.51328 5.65276 -5.85551 0 0 0 
15 3 1 5.99965 3.73412 -7.33506 0 0 0 
40 1 1 -3.2534 -19.8884 12.3951 0 0 0 
41 2 1 -1.48959 -23.4178 11.183 0 0 0 
36 3 1 0.890454 -18.0649 4.12131 0 0 0 
35 2 1 -1.43415 -16.375 6.55306 0 0 0 
42 3 1 0.328168 -25.5419 8.84708 0 0 0 
30 3 1 -3.08737 -5.55083 13.1294 0 0 0 
37 1 1 -2.21036 -16.3014 11.0054 0 0 0 
38 2 1 -4.50303 -15.7954 14.0345 0 0 0 
31 1 1 -1.24359 -9.73349 7.1669 0 0 0 
34 1 1 -1.45031 -13.2296 8.92939 0 0 0 
33 3 1 2.06078 -13.8729 1.48458 0 0 0 
27 3 1 -4.33251 0.326563 8.25425 0 0 0 
39 3 1 -4.48223 -15.3269 17.7548 0 0 0 
ITEM: TIMESTEP
900000
ITEM: NUMBER OF ATOMS
42
ITEM: BOX BOUNDS pp pp pp
-108.456 108.456
-108.456 108.456
-108.456 108.456
ITEM: ATOMS id type mol x y z ix iy iz 
18 3 1 4.93841 3.83987 -10.6251 0 0 0 
17 2 1 4.22143 3.75057 -6.91858 0 0 0 
6 3 1 -0.261574 13.4896 -15.1223 0 0 0 
12 3 1 -0.313594 7.14538 -13.877 0 0 0 
5 2 1 -0.652229 16.087 -12.6733 0 0 0 
10 1 1 -1.23873 11.1676 -7.58784 0 0 0 
7 1 1 -2.30881 14.8011 -8.30685 0 0 0 
11 2 1 -0.632714 8.48761 -10.6362 0 0 0 
3 3 1 -2.37803 18.2171 -17.2774 0 0 0 
1 1 1 -2.68053 22.2035 -11.1077 0 0 0 
4 1 1 -2.63704 18.3798 -10.0232 0 0 0 
2 2 1 -1.42776 19.7107 -14.0726 0 0 0 
24 3 1 4.20867 -8.41239 -5.53699 0 0 0 
26 2 1 1.21382 -2.94012 4.71864 0 0 0 
27 3 1 2.19767 0.0263749 6.97947 0 0 0 
25 1 1 1.40626 -5.15318 1.25386 0 0 0 
28 1 1 0.768178 -7.15604 4.56098 0 0 0 
30 3 1 -4.67051 -3.72898 6.98863 0 0 0 
29 2 1 -1.63085 -5.31687 7.19214 0 0 0 
23 2 1 2.5829 -6.29719 -2.89543 0 0 0 
19 1 1 1.66619 0.924391 -3.46522 0 0 0 
22 1 1 1.7993 -2.5406 -1.71056 0 0 0 
20 2 1 -0.446476 0.380432 0.0927478 0 0 0 
16 1 1 0.914685 4.49419 -4.76638 0 0 0 
15 3 1 -2.10679 6.698 1.84958 0 0 0 
13 1 1 -0.557947 7.85837 -5.68454 0 0 0 
14 2 1 -1.86025 6.8307 -1.96945 0 0 0 
8 2 1 -4.89107 13.1652 -5.70891 0 0 0 
9 3 1 -5.92852 12.6848 -2.46955 0 0 0 
33 3 1 -5.76315 -10.8853 10.8797 0 0 0 
42 3 1 -6.87017 -19.3919 13.9927 0 0 0 
41 2 1 -3.18186 -20.0769 14.1386 0 0 0 
37 1 1 1.84916 -15.9601 11.8111 0 0 0 
32 2 1 -3.28929 -10.4977 8.50048 0 0 0 
31 1 1 0.247571 -9.83074 7.31833 0 0 0 
34 1 1 1.3885 -12.6616 9.58877 0 0 0 
35 2 1 5.0705 -12.2354 11.3202 0 0 0 
39 3 1 8.50531 -16.0691 15.3159 0 0 0 
38 2 1 5.35861 -16.8527 13.7782 0 0 0 
40 1 1 0.749633 -19.3999 13.6729 0 0 0 
21 3 1 -3.29345 0.731055 2.29874 0 0 0 
36 3 1 8.7388 -12.0918 10.2212 0 0 0 
ITEM: TIMESTEP
1000000
ITEM: NUMBER OF ATOMS
42
ITEM: BOX BOUNDS pp pp pp
-108.456 108.456
-108.456 108.456
-108.456 108.456
ITEM: ATOMS id type mol x y z ix iy iz 
3 3 1 6.78676 1.99218 -18.7202 0 0 0 
9 3 1 -5.22245 11.1184 -17.8461 0 0 0 
5 2 1 0.377299 7.86216 -18.0785 0 0 0 
4 1 1 4.01985 9.18202 -16.8973 0 0 0 
6 3 1 -1.49947 5.58099 -20.1907 0 0 0 
2 2 1 6.33329 5.36285 -19.1419 0 0 0 
1 1 1 7.50413 9.18687 -18.5894 0 0 0 
14 2 1 -5.36895 9.08747 -5.98121 0 0 0 
12 3 1 -5.84247 14.908 -9.40229 0 0 0 
7 1 1 1.25465 9.49037 -14.1347 0 0 0 
13 1 1 -2.18899 7.40239 -7.86149 0 0 0 
8 2 1 -2.3524 10.7841 -15.2367 0 0 0 
11 2 1 -3.30109 12.0012 -9.57193 0 0 0 
10 1 1 -0.789448 9.08619 -11.0725 0 0 0 
27 3 1 -7.59884 -7.34342 4.94915 0 0 0 
17 2 1 -5.384 4.56418 -2.39622 0 0 0 
26 2 1 -5.76741 -3.99537 4.991 0 0 0 
16 1 1 -2.28581 4.9782 -4.96601 0 0 0 
20 2 1 2.01086 -0.0115271 -3.12428 0 0 0 
22 1 1 -1.1627 -0.497993 0.553052 0 0 0 
19 1 1 -1.18936 2.0988 -2.42867 0 0 0 
23 2 1 2.31017 -2.45148 1.13953 0 0 0 
25 1 1 -2.1183 -2.61586 3.56368 0 0 0 
21 3 1 3.84895 -3.31252 -3.53668 0 0 0 
24 3 1 5.81065 -3.05367 0.736558 0 0 0 
15 3 1 -7.17972 10.4545 -3.02569 0 0 0 
18 3 1 -7.85487 6.23959 -0.0688061 0 0 0 
36 3 1 -3.65804 -15.5748 13.6961 0 0 0 
30 3 1 -7.66943 -5.78547 11.2155 0 0 0 
34 1 1 0.166412 -8.67062 13.0935 0 0 0 
35 2 1 -2.1128 -12.1348 13.9393 0 0 0 
32 2 1 3.80022 -6.25685 11.1124 0 0 0 
31 1 1 -0.219643 -6.14759 10.1416 0 0 0 
33 3 1 6.87908 -8.38644 10.9364 0 0 0 
39 3 1 8.78297 -9.73859 15.4029 0 0 0 
29 2 1 -4.51784 -4.53623 9.36532 0 0 0 
28 1 1 -1.73718 -4.39457 7.05913 0 0 0 
40 1 1 1.70786 -11.2729 20.0296 0 0 0 
37 1 1 1.4761 -9.81239 16.4263 0 0 0 
42 3 1 9.03267 -11.1473 20.9308 0 0 0 
41 2 1 5.51842 -12.0892 21.1036 0 0 0 
38 2 1 5.41346 -9.24717 16.4798 0 0 0 
