ITEM: TIMESTEP
0
ITEM: NUMBER OF ATOMS
48
ITEM: BOX BOUNDS pp pp pp
-113.393 113.393
-113.393 113.393
-113.393 113.393
ITEM: ATOMS id type mol x y z ix iy iz 
3 3 1 -11.2807 -5.80539 -23.7916 0 0 0 
1 1 1 -4.4451 -5.04098 -26.9052 0 0 0 
2 2 1 -7.83461 -5.09946 -25.0339 0 0 0 
4 1 1 -3.85956 -4.30582 -23.3868 0 0 0 
5 2 1 -0.332099 -5.245 -24.2845 0 0 0 
6 3 1 3.25512 -6.21586 -23.4593 0 0 0 
7 1 1 -3.27403 -3.57065 -19.8684 0 0 0 
8 2 1 -6.66355 -3.62914 -17.9971 0 0 0 
9 3 1 -10.1096 -4.33506 -16.7548 0 0 0 
10 1 1 -2.6885 -2.83549 -16.35 0 0 0 
13 1 1 -2.10297 -2.10033 -12.8316 0 0 0 
14 2 1 -5.49249 -2.15881 -10.9603 0 0 0 
11 2 1 0.838961 -3.77467 -17.2477 0 0 0 
12 3 1 4.42618 -4.74554 -16.4225 0 0 0 
15 3 1 -8.93856 -2.86473 -9.71804 0 0 0 
16 1 1 -1.51744 -1.36516 -9.31319 0 0 0 
19 1 1 -0.931911 -0.629998 -5.79479 0 0 0 
20 2 1 -4.32143 -0.688482 -3.92353 0 0 0 
21 3 1 -7.7675 -1.3944 -2.68124 0 0 0 
17 2 1 2.01002 -2.30435 -10.2109 0 0 0 
18 3 1 5.59724 -3.27521 -9.38575 0 0 0 
23 2 1 3.18108 -0.83402 -3.17409 0 0 0 
24 3 1 6.7683 -1.80488 -2.34895 0 0 0 
22 1 1 -0.34638 0.105164 -2.27638 0 0 0 
30 3 1 7.93936 -0.334554 4.68786 0 0 0 
26 2 1 -3.15037 0.781844 3.11327 0 0 0 
27 3 1 -6.59644 0.075921 4.35556 0 0 0 
32 2 1 -1.97931 2.25217 10.1501 0 0 0 
25 1 1 0.23915 0.840328 1.24202 0 0 0 
28 1 1 0.82468 1.57549 4.76042 0 0 0 
29 2 1 4.35215 0.636306 3.86271 0 0 0 
31 1 1 1.41021 2.31066 8.27882 0 0 0 
33 3 1 -5.42537 1.54625 11.3924 0 0 0 
38 2 1 -0.808244 3.7225 17.1869 0 0 0 
39 3 1 -4.25431 3.01658 18.4292 0 0 0 
34 1 1 1.99574 3.04582 11.7972 0 0 0 
35 2 1 5.52321 2.10663 10.8995 0 0 0 
36 3 1 9.11042 1.13577 11.7247 0 0 0 
37 1 1 2.58127 3.78098 15.3156 0 0 0 
40 1 1 3.1668 4.51615 18.834 0 0 0 
41 2 1 6.69427 3.57696 17.9363 0 0 0 
42 3 1 10.2815 2.6061 18.7614 0 0 0 
45 3 1 -3.08325 4.4869 25.466 0 0 0 
43 1 1 3.75233 5.25131 22.3524 0 0 0 
44 2 1 0.362816 5.19283 24.2237 0 0 0 
46 1 1 4.33786 5.98647 25.8708 0 0 0 
47 2 1 7.86533 5.04729 24.9731 0 0 0 
48 3 1 11.4525 4.07643 25.7983 0 0 0 
ITEM: TIMESTEP
100000
ITEM: NUMBER OF ATOMS
48
ITEM: BOX BOUNDS pp pp pp
-113.393 113.393
-113.393 113.393
-113.393 113.393
ITEM: ATOMS id type mol x y z ix iy iz 
33 3 1 -0.234442 3.67346 -11.9898 0 0 0 
32 2 1 2.40105 1.95161 -9.84848 0 0 0 
39 3 1 8.41229 -0.682953 -18.3915 0 0 0 
37 1 1 9.44565 2.21623 -12.2979 0 0 0 
43 1 1 15.6481 1.14781 -16.5976 0 0 0 
44 2 1 15.8879 -2.44097 -18.4222 0 0 0 
38 2 1 8.41539 1.00626 -15.2793 0 0 0 
46 1 1 18.91 1.39918 -18.6891 0 0 0 
45 3 1 15.2915 -6.09283 -18.9431 0 0 0 
40 1 1 12.6796 2.13607 -14.2579 0 0 0 
48 3 1 24.1508 6.28799 -18.1981 0 0 0 
47 2 1 22.3743 3.25955 -17.948 0 0 0 
21 3 1 -2.73548 -7.67967 4.84768 0 0 0 
20 2 1 -3.2143 -4.02527 3.94344 0 0 0 
24 3 1 -3.23925 -5.19587 -3.66636 0 0 0 
25 1 1 -0.552971 0.878857 -1.50289 0 0 0 
23 2 1 -3.96671 -2.02166 -2.22078 0 0 0 
22 1 1 -3.09435 -0.323234 1.26476 0 0 0 
27 3 1 -2.44453 -0.253841 -8.8319 0 0 0 
26 2 1 -0.937799 -0.193339 -5.38394 0 0 0 
28 1 1 2.35848 2.54504 -3.31591 0 0 0 
42 3 1 18.5213 7.1271 -13.3466 0 0 0 
31 1 1 4.51476 2.57932 -6.48442 0 0 0 
29 2 1 5.37921 4.16456 -2.21949 0 0 0 
34 1 1 7.11243 2.72082 -9.29107 0 0 0 
30 3 1 7.58445 6.89276 -0.854819 0 0 0 
35 2 1 9.63856 5.14742 -9.06985 0 0 0 
36 3 1 12.2068 7.57307 -10.4102 0 0 0 
41 2 1 15.9046 4.44769 -14.3483 0 0 0 
14 2 1 -6.0606 -3.35092 11.5316 0 0 0 
13 1 1 -9.01063 -0.844176 11.0424 0 0 0 
15 3 1 -6.09483 -6.83595 11.6966 0 0 0 
17 2 1 -6.56748 3.74152 7.29725 0 0 0 
18 3 1 -6.01069 6.72512 5.12619 0 0 0 
19 1 1 -4.55786 -0.405132 4.70569 0 0 0 
16 1 1 -6.70391 -0.0973732 7.88074 0 0 0 
12 3 1 -15.2777 3.25103 8.47637 0 0 0 
10 1 1 -12.0745 -1.5233 13.4146 0 0 0 
2 2 1 -11.5418 -10.2468 18.8384 0 0 0 
3 3 1 -9.53187 -10.073 15.7958 0 0 0 
7 1 1 -13.4027 -2.89459 16.7813 0 0 0 
4 1 1 -13.6205 -5.41926 19.8171 0 0 0 
11 2 1 -14.1538 0.535684 10.6881 0 0 0 
9 3 1 -14.2256 4.05287 14.2772 0 0 0 
5 2 1 -15.845 -2.43826 21.4495 0 0 0 
8 2 1 -15.1846 0.523132 15.5397 0 0 0 
1 1 1 -13.1099 -8.63126 22.2774 0 0 0 
6 3 1 -18.5674 -0.328572 21.9752 0 0 0 
ITEM: TIMESTEP
200000
ITEM: NUMBER OF ATOMS
48
ITEM: BOX BOUNDS pp pp pp
-113.393 113.393
-113.393 113.393
-113.393 113.393
ITEM: ATOMS id type mol x y z ix iy iz 
42 3 1 -15.3535 11.801 -10.5389 0 0 0 
45 3 1 -16.6135 16.7692 -9.76995 0 0 0 
3 3 1 18.027 -18.2481 3.67857 0 0 0 
2 2 1 19.7673 -18.1124 6.70693 0 0 0 
27 3 1 -6.68245 -2.2298 7.08314 0 0 0 
21 3 1 0.191304 -9.26641 6.33344 0 0 0 
39 3 1 -10.8646 15.7342 3.54884 0 0 0 
38 2 1 -11.9001 12.7372 1.84027 0 0 0 
34 1 1 -10.165 6.76387 -0.89334 0 0 0 
30 3 1 -1.46314 4.82089 -5.90621 0 0 0 
48 3 1 -18.5731 24.7862 -7.69712 0 0 0 
47 2 1 -17.7194 22.626 -4.67059 0 0 0 
46 1 1 -15.7274 20.2387 -2.66694 0 0 0 
37 1 1 -12.2644 9.92886 -1.24232 0 0 0 
44 2 1 -17.6179 18.3023 -6.86573 0 0 0 
41 2 1 -14.5926 12.8686 -6.8957 0 0 0 
40 1 1 -14.1691 12.8289 -2.92093 0 0 0 
43 1 1 -15.5783 16.3789 -3.78317 0 0 0 
36 3 1 -14.4367 3.78134 -6.38161 0 0 0 
35 2 1 -11.8342 5.97549 -4.53566 0 0 0 
9 3 1 19.2974 -13.1212 -1.70777 0 0 0 
15 3 1 8.26358 -11.8584 -6.34176 0 0 0 
14 2 1 8.68972 -12.1298 -2.53848 0 0 0 
8 2 1 16.9793 -14.6115 0.456148 0 0 0 
7 1 1 16.6582 -12.5044 3.8305 0 0 0 
10 1 1 13.6718 -10.7452 1.97702 0 0 0 
4 1 1 19.3921 -13.6671 6.34122 0 0 0 
5 2 1 19.032 -9.61961 6.06606 0 0 0 
1 1 1 21.6304 -15.3564 9.19213 0 0 0 
6 3 1 17.5538 -6.31681 6.12949 0 0 0 
26 2 1 -4.36311 -0.681704 4.38458 0 0 0 
19 1 1 3.30298 -6.58506 -0.0778009 0 0 0 
16 1 1 7.0325 -7.4462 -0.369089 0 0 0 
13 1 1 10.3548 -9.57133 0.0407816 0 0 0 
17 2 1 6.96404 -3.37235 -0.481559 0 0 0 
22 1 1 0.240978 -4.1639 0.082831 0 0 0 
20 2 1 1.25181 -8.44039 2.90933 0 0 0 
12 3 1 10.9913 -6.68318 7.41863 0 0 0 
11 2 1 11.8999 -7.5994 3.93881 0 0 0 
33 3 1 -8.94311 6.04811 6.83299 0 0 0 
31 1 1 -7.37334 4.06305 -0.0804927 0 0 0 
32 2 1 -8.33543 6.19577 3.3201 0 0 0 
28 1 1 -4.77186 1.26137 0.0330613 0 0 0 
29 2 1 -3.89662 3.47368 -3.30425 0 0 0 
25 1 1 -2.31609 -1.59234 0.987223 0 0 0 
24 3 1 -0.553748 -1.59772 -6.79859 0 0 0 
23 2 1 -1.03243 -2.25016 -3.4704 0 0 0 
18 3 1 7.03906 -0.513809 -2.49016 0 0 0 
ITEM: TIMESTEP
300000
ITEM: NUMBER OF ATOMS
48
ITEM: BOX BOUNDS pp pp pp
-113.393 113.393
-113.393 113.393
-113.393 113.393
ITEM: ATOMS id type mol x y z ix iy iz 
1 1 1 -1.30234 -8.24795 -26.1474 0 0 0 
4 1 1 -0.904346 -9.24646 -22.4121 0 0 0 
5 2 1 -2.49538 -12.7153 -21.1592 0 0 0 
2 2 1 -3.27027 -11.8391 -25.717 0 0 0 
3 3 1 -4.76943 -14.9112 -26.3699 0 0 0 
8 2 1 -0.362487 -12.1768 -16.2352 0 0 0 
7 1 1 0.0798306 -8.92469 -18.6659 0 0 0 
11 2 1 1.70933 -10.1777 -12.714 0 0 0 
9 3 1 -2.73165 -15.2206 -15.628 0 0 0 
12 3 1 1.06427 -13.5546 -11.1364 0 0 0 
6 3 1 -4.90007 -15.1646 -21.1072 0 0 0 
10 1 1 0.362962 -7.85737 -14.9689 0 0 0 
13 1 1 -0.0837292 -5.97497 -11.5764 0 0 0 
14 2 1 -0.598517 -1.91287 -11.6517 0 0 0 
15 3 1 -1.8388 1.1812 -12.6926 0 0 0 
19 1 1 -0.702003 -4.51093 -3.94964 0 0 0 
21 3 1 -1.83778 -10.7901 0.119591 0 0 0 
16 1 1 -0.51084 -5.03815 -7.83577 0 0 0 
22 1 1 -0.894725 -2.69812 -0.537692 0 0 0 
20 2 1 -0.922318 -7.62288 -1.34499 0 0 0 
18 3 1 -2.08276 2.45474 -6.19081 0 0 0 
17 2 1 -1.41877 -1.20892 -7.07066 0 0 0 
24 3 1 2.41559 3.54687 -2.45899 0 0 0 
23 2 1 0.754796 1.01058 -0.175239 0 0 0 
25 1 1 -1.73662 -1.83889 3.13305 0 0 0 
26 2 1 -3.8681 -4.61804 5.2094 0 0 0 
27 3 1 -4.97167 -8.05343 5.83418 0 0 0 
32 2 1 -0.111801 0.768906 13.3308 0 0 0 
29 2 1 -3.11082 -2.63811 9.59698 0 0 0 
28 1 1 -1.56575 -0.366261 6.62292 0 0 0 
31 1 1 -0.625355 2.02282 9.55385 0 0 0 
34 1 1 0.290435 5.08395 11.9343 0 0 0 
35 2 1 2.83297 7.13067 10.5764 0 0 0 
36 3 1 4.915 9.54011 8.56688 0 0 0 
30 3 1 -3.73328 -5.40031 12.0402 0 0 0 
33 3 1 0.318295 -2.22355 15.4419 0 0 0 
38 2 1 -2.32343 9.16803 17.2003 0 0 0 
39 3 1 -5.16853 9.70776 19.8244 0 0 0 
37 1 1 0.392979 8.03146 14.5708 0 0 0 
41 2 1 5.69464 12.0153 13.4053 0 0 0 
42 3 1 9.01212 11.9091 12.3319 0 0 0 
40 1 1 2.37913 11.171 15.5697 0 0 0 
43 1 1 3.12907 14.5905 16.964 0 0 0 
46 1 1 4.79116 17.7335 18.3036 0 0 0 
45 3 1 -3.01923 19.3437 17.819 0 0 0 
44 2 1 -0.197533 16.7567 18.3432 0 0 0 
48 3 1 10.9189 19.637 13.6258 0 0 0 
47 2 1 8.27482 18.6744 16.3455 0 0 0 
ITEM: TIMESTEP
400000
ITEM: NUMBER OF ATOMS
48
ITEM: BOX BOUNDS pp pp pp
-113.393 113.393
-113.393 113.393
-113.393 113.393
ITEM: ATOMS id type mol x y z ix iy iz 
2 2 1 -25.4598 -1.76299 -10.3549 0 0 0 
3 3 1 -25.0421 1.50039 -8.56836 0 0 0 
12 3 1 -9.95166 -6.88671 -10.6855 0 0 0 
18 3 1 -9.57067 -9.32413 -1.59625 0 0 0 
1 1 1 -26.0815 -4.77844 -12.9797 0 0 0 
4 1 1 -22.3241 -4.9176 -11.6908 0 0 0 
5 2 1 -19.9655 -7.08092 -14.2448 0 0 0 
6 3 1 -17.1965 -7.50802 -17.008 0 0 0 
8 2 1 -20.0723 -2.16832 -6.63709 0 0 0 
11 2 1 -12.3767 -5.48108 -8.5622 0 0 0 
7 1 1 -18.9166 -4.42508 -9.75786 0 0 0 
10 1 1 -15.7743 -3.49052 -7.76922 0 0 0 
13 1 1 -13.1803 -2.19313 -5.15923 0 0 0 
14 2 1 -13.3787 1.45351 -3.33341 0 0 0 
17 2 1 -8.60888 -5.63499 -1.47466 0 0 0 
16 1 1 -9.81586 -2.2949 -3.11743 0 0 0 
19 1 1 -6.35943 -1.75562 -1.63279 0 0 0 
22 1 1 -2.56543 -1.63507 -0.865437 0 0 0 
25 1 1 0.785714 -0.706318 0.609444 0 0 0 
9 3 1 -19.9704 0.729138 -4.38257 0 0 0 
15 3 1 -12.6735 3.30516 -0.0799179 0 0 0 
20 2 1 -5.25178 1.95289 -0.374529 0 0 0 
21 3 1 -2.98104 4.78725 1.00146 0 0 0 
27 3 1 1.56462 6.57037 3.0687 0 0 0 
26 2 1 1.24818 3.3029 1.10596 0 0 0 
30 3 1 8.18562 5.82318 0.966799 0 0 0 
29 2 1 6.80371 2.56695 1.54423 0 0 0 
36 3 1 15.4651 0.999681 -0.895529 0 0 0 
33 3 1 8.63012 -3.24274 11.1951 0 0 0 
23 2 1 -0.140812 -4.564 -2.29103 0 0 0 
24 3 1 0.830883 -7.56929 -0.935129 0 0 0 
28 1 1 4.24664 -0.495469 2.41843 0 0 0 
32 2 1 8.31982 -3.067 7.51474 0 0 0 
31 1 1 7.52787 -0.633252 4.4705 0 0 0 
35 2 1 13.6613 0.150854 2.25276 0 0 0 
34 1 1 11.22 0.357703 5.25053 0 0 0 
37 1 1 14.5085 1.66588 6.39021 0 0 0 
40 1 1 17.1236 3.62996 8.44851 0 0 0 
38 2 1 18.1769 1.17366 4.68196 0 0 0 
39 3 1 20.729 -0.481037 2.68729 0 0 0 
42 3 1 22.3373 4.48085 3.0318 0 0 0 
41 2 1 20.4925 4.16971 6.47238 0 0 0 
45 3 1 26.8046 4.60928 9.38916 0 0 0 
43 1 1 19.3431 5.79668 10.7993 0 0 0 
44 2 1 23.3563 6.1454 10.2173 0 0 0 
48 3 1 22.2072 14.7117 13.5861 0 0 0 
46 1 1 20.7458 7.76499 13.725 0 0 0 
47 2 1 20.7436 11.6721 14.3484 0 0 0 
ITEM: TIMESTEP
500000
ITEM: NUMBER OF ATOMS
48
ITEM: BOX BOUNDS pp pp pp
-113.393 113.393
-113.393 113.393
-113.393 113.393
ITEM: ATOMS id type mol x y z ix iy iz 
37 1 1 8.74284 7.79894 -11.3332 0 0 0 
35 2 1 4.03051 6.27757 -11.7211 0 0 0 
36 3 1 1.3762 6.86882 -14.1226 0 0 0 
43 1 1 14.6655 10.0166 -15.3246 0 0 0 
40 1 1 11.3177 9.84082 -13.3289 0 0 0 
44 2 1 16.853 6.70488 -16.1249 0 0 0 
45 3 1 16.6852 3.19794 -16.3635 0 0 0 
38 2 1 12.2904 5.71553 -11.4359 0 0 0 
39 3 1 15.54 4.63258 -10.4413 0 0 0 
47 2 1 20.0692 7.90351 -17.7026 0 0 0 
48 3 1 22.2502 5.02549 -16.5854 0 0 0 
41 2 1 11.4619 13.7809 -13.9267 0 0 0 
42 3 1 10.6187 17.2522 -14.956 0 0 0 
46 1 1 17.9396 11.0963 -17.1883 0 0 0 
18 3 1 -9.69628 -2.00047 -0.160152 0 0 0 
26 2 1 4.83513 -0.899858 -0.674251 0 0 0 
25 1 1 0.839993 -0.373665 -0.810182 0 0 0 
28 1 1 2.69577 2.15127 -3.10135 0 0 0 
32 2 1 7.66303 1.62889 -8.09547 0 0 0 
30 3 1 0.466346 8.8789 -2.83272 0 0 0 
34 1 1 6.28451 5.92098 -8.73649 0 0 0 
29 2 1 2.10012 5.57433 -2.78342 0 0 0 
31 1 1 4.88488 3.69652 -5.89211 0 0 0 
27 3 1 7.76851 0.869221 -1.41389 0 0 0 
33 3 1 11.0413 0.331174 -9.28692 0 0 0 
9 3 1 -17.0191 -12.21 9.80114 0 0 0 
14 2 1 -11.3671 -4.49618 6.12626 0 0 0 
15 3 1 -13.4946 -2.25135 4.44297 0 0 0 
13 1 1 -9.29652 -6.86434 8.61521 0 0 0 
16 1 1 -6.50267 -5.91504 5.78988 0 0 0 
19 1 1 -3.44581 -4.98086 3.75001 0 0 0 
22 1 1 -1.49349 -2.47936 1.36107 0 0 0 
20 2 1 -0.140291 -6.40297 3.45357 0 0 0 
17 2 1 -7.86963 -4.25376 2.40677 0 0 0 
21 3 1 3.31218 -6.55992 3.98877 0 0 0 
24 3 1 -2.61426 4.29651 3.94759 0 0 0 
23 2 1 -2.42255 1.42259 2.04809 0 0 0 
12 3 1 -4.40498 -11.5813 13.4866 0 0 0 
8 2 1 -16.0243 -8.8336 10.8472 0 0 0 
1 1 1 -19.0733 -7.13827 19.8816 0 0 0 
5 2 1 -12.2309 -8.56302 18.301 0 0 0 
4 1 1 -16.1154 -7.51497 17.4221 0 0 0 
7 1 1 -14.192 -7.89005 14.157 0 0 0 
10 1 1 -11.1254 -7.93686 11.8129 0 0 0 
6 3 1 -8.79468 -8.73965 18.7682 0 0 0 
11 2 1 -7.55175 -9.96004 12.1842 0 0 0 
3 3 1 -12.4272 -6.01904 23.0563 0 0 0 
2 2 1 -16.0547 -6.53491 22.3389 0 0 0 
ITEM: TIMESTEP
600000
ITEM: NUMBER OF ATOMS
48
ITEM: BOX BOUNDS pp pp pp
-113.393 113.393
-113.393 113.393
-113.393 113.393
ITEM: ATOMS id type mol x y z ix iy iz 
48 3 1 -15.6875 12.3685 -20.9415 0 0 0 
45 3 1 -15.9642 13.9142 -16.1162 0 0 0 
42 3 1 -12.2331 10.1073 -11.3655 0 0 0 
41 2 1 -10.0255 12.5505 -10.2529 0 0 0 
47 2 1 -12.5003 12.3273 -19.5896 0 0 0 
46 1 1 -8.80834 13.2524 -18.4325 0 0 0 
44 2 1 -12.1879 13.3432 -15.7105 0 0 0 
43 1 1 -8.328 12.9111 -14.6465 0 0 0 
40 1 1 -6.11995 12.5281 -11.4772 0 0 0 
38 2 1 -2.18932 15.3686 -11.0547 0 0 0 
39 3 1 0.0744 18.4435 -12.1039 0 0 0 
21 3 1 8.14405 -1.49807 -2.11354 0 0 0 
31 1 1 1.20661 8.67368 -3.54654 0 0 0 
28 1 1 2.50383 6.01723 -0.970987 0 0 0 
29 2 1 4.31948 9.49301 0.10116 0 0 0 
37 1 1 -3.30468 12.0522 -8.95011 0 0 0 
34 1 1 -0.880536 10.6278 -6.29095 0 0 0 
35 2 1 1.14638 12.9841 -9.10199 0 0 0 
32 2 1 2.82423 12.1748 -3.72765 0 0 0 
36 3 1 3.62584 13.7511 -11.9306 0 0 0 
6 3 1 4.55287 -25.904 10.348 0 0 0 
9 3 1 3.11247 -21.1169 4.79557 0 0 0 
18 3 1 3.90839 -9.0907 -0.991557 0 0 0 
8 2 1 3.22184 -18.1944 7.11214 0 0 0 
10 1 1 3.0448 -13.813 9.49192 0 0 0 
17 2 1 6.16102 -7.56987 1.1919 0 0 0 
14 2 1 2.54755 -7.06121 9.27786 0 0 0 
20 2 1 5.56998 -3.09171 -0.0986108 0 0 0 
13 1 1 3.50892 -10.6241 7.46002 0 0 0 
19 1 1 4.28543 -4.33319 3.4077 0 0 0 
16 1 1 4.41189 -7.97702 4.73538 0 0 0 
22 1 1 3.5311 -0.478349 2.85239 0 0 0 
23 2 1 2.41626 2.04419 5.66091 0 0 0 
25 1 1 2.70356 2.99033 1.40953 0 0 0 
26 2 1 0.368071 5.41721 3.64453 0 0 0 
27 3 1 -0.945109 7.92658 6.23099 0 0 0 
24 3 1 3.28849 3.99306 8.44785 0 0 0 
30 3 1 4.37064 12.9427 1.11447 0 0 0 
33 3 1 5.34022 15.1191 -3.38134 0 0 0 
5 2 1 3.98234 -22.8065 11.7165 0 0 0 
1 1 1 -0.285426 -21.3969 16.6442 0 0 0 
2 2 1 -0.912067 -17.4658 16.5717 0 0 0 
4 1 1 1.86575 -20.4445 13.4469 0 0 0 
3 3 1 -1.70871 -15.2137 13.8637 0 0 0 
7 1 1 2.6914 -17.3994 10.9999 0 0 0 
12 3 1 4.4852 -7.95491 14.3075 0 0 0 
15 3 1 3.70394 -3.66378 10.3856 0 0 0 
11 2 1 3.33038 -10.6482 12.1139 0 0 0 
ITEM: TIMESTEP
700000
ITEM: NUMBER OF ATOMS
48
ITEM: BOX BOUNDS pp pp pp
-113.393 113.393
-113.393 113.393
-113.393 113.393
ITEM: ATOMS id type mol x y z ix iy iz 
3 3 1 12.2972 -23.0564 -5.41206 0 0 0 
1 1 1 17.0653 -20.8705 -10.0607 0 0 0 
2 2 1 15.0549 -22.9499 -7.92754 0 0 0 
6 3 1 14.3011 -11.114 -7.28534 0 0 0 
9 3 1 6.33781 -22.846 -6.88573 0 0 0 
8 2 1 8.26036 -19.9845 -5.72302 0 0 0 
10 1 1 9.18743 -14.7174 -4.59244 0 0 0 
4 1 1 14.3124 -18.6242 -8.45071 0 0 0 
7 1 1 11.284 -17.4052 -6.4502 0 0 0 
5 2 1 15.288 -14.7618 -8.01502 0 0 0 
11 2 1 6.0835 -15.9871 -2.10795 0 0 0 
12 3 1 3.2141 -15.2364 0.397588 0 0 0 
13 1 1 7.9572 -11.1917 -3.64757 0 0 0 
20 2 1 3.19074 -2.54125 -3.9001 0 0 0 
14 2 1 7.68986 -8.30194 -6.67231 0 0 0 
16 1 1 6.64663 -8.02903 -1.88629 0 0 0 
15 3 1 6.9448 -8.10551 -10.1834 0 0 0 
21 3 1 3.96435 1.04693 -4.38227 0 0 0 
48 3 1 -21.1587 21.4718 -2.38626 0 0 0 
47 2 1 -19.9773 19.6461 0.306997 0 0 0 
42 3 1 -10.3739 18.5862 -2.05762 0 0 0 
41 2 1 -11.3613 16.7169 0.711536 0 0 0 
24 3 1 4.82089 5.13572 -0.684422 0 0 0 
22 1 1 2.99474 -1.71199 0.366406 0 0 0 
19 1 1 4.82786 -4.64701 -0.887286 0 0 0 
23 2 1 4.91745 1.98451 0.755383 0 0 0 
17 2 1 7.8822 -7.81515 1.5038 0 0 0 
18 3 1 7.2826 -9.8587 4.48278 0 0 0 
36 3 1 -8.69155 8.89193 11.652 0 0 0 
34 1 1 -6.56978 9.10271 4.79317 0 0 0 
31 1 1 -3.41446 7.25081 3.77834 0 0 0 
35 2 1 -9.14908 8.41972 8.0655 0 0 0 
29 2 1 1.62467 6.70736 5.03969 0 0 0 
25 1 1 0.635841 1.13649 1.46144 0 0 0 
26 2 1 -3.32361 -0.0938367 1.62309 0 0 0 
28 1 1 -0.982155 4.4223 2.88067 0 0 0 
43 1 1 -14.8684 16.8041 4.24673 0 0 0 
40 1 1 -11.4695 14.8112 3.69164 0 0 0 
44 2 1 -16.2646 17.4777 7.98262 0 0 0 
38 2 1 -9.53424 14.8365 7.49717 0 0 0 
46 1 1 -18.3713 18.2059 3.77994 0 0 0 
45 3 1 -17.1651 19.3242 11.3039 0 0 0 
39 3 1 -12.2265 14.63 9.85918 0 0 0 
33 3 1 -4.253 13.7179 3.56977 0 0 0 
32 2 1 -2.16554 10.9353 3.53758 0 0 0 
37 1 1 -8.85153 12.0844 5.01954 0 0 0 
30 3 1 3.01219 9.60375 6.95427 0 0 0 
27 3 1 -6.11279 -1.19289 -0.342284 0 0 0 
ITEM: TIMESTEP
800000
ITEM: NUMBER OF ATOMS
48
ITEM: BOX BOUNDS pp pp pp
-113.393 113.393
-113.393 113.393
-113.393 113.393
ITEM: ATOMS id type mol x y z ix iy iz 
3 3 1 8.78234 -8.8811 -21.737 0 0 0 
2 2 1 6.7332 -10.276 -24.786 0 0 0 
6 3 1 9.84011 -16.5817 -16.3393 0 0 0 
1 1 1 3.56844 -11.8309 -22.8477 0 0 0 
7 1 1 6.75127 -9.94683 -16.2063 0 0 0 
4 1 1 5.63313 -11.0895 -19.7051 0 0 0 
5 2 1 8.3534 -13.7923 -18.3972 0 0 0 
10 1 1 5.60122 -8.74029 -12.6544 0 0 0 
8 2 1 10.4712 -9.18005 -14.6223 0 0 0 
9 3 1 13.9227 -9.38239 -14.2101 0 0 0 
15 3 1 -3.78836 -7.54115 -11.2783 0 0 0 
12 3 1 11.3655 -7.26641 -7.67634 0 0 0 
11 2 1 7.90867 -7.91529 -9.45064 0 0 0 
14 2 1 -0.635483 -6.55237 -10.0585 0 0 0 
13 1 1 3.18419 -7.47868 -9.66196 0 0 0 
20 2 1 -1.38611 -3.07161 -1.52519 0 0 0 
17 2 1 5.68815 -7.02808 -3.41282 0 0 0 
19 1 1 1.51571 -5.72589 -2.26759 0 0 0 
16 1 1 2.30081 -6.83909 -5.82212 0 0 0 
21 3 1 -3.46681 0.0152326 -2.19428 0 0 0 
18 3 1 7.85104 -6.48992 -0.547 0 0 0 
22 1 1 1.60025 -5.12402 1.51749 0 0 0 
23 2 1 2.41466 -8.13466 4.16694 0 0 0 
24 3 1 1.65941 -10.9148 6.04077 0 0 0 
27 3 1 5.0273 -5.27833 10.2165 0 0 0 
25 1 1 1.23442 -3.18715 4.75876 0 0 0 
26 2 1 2.5728 -4.56127 7.73612 0 0 0 
34 1 1 -3.04015 6.27293 8.81639 0 0 0 
31 1 1 -1.39243 2.8452 8.74049 0 0 0 
32 2 1 -2.2419 2.89826 12.6169 0 0 0 
29 2 1 -1.20273 -1.39975 10.7359 0 0 0 
28 1 1 0.0229892 -0.311812 7.10867 0 0 0 
35 2 1 -3.17701 8.28041 5.29287 0 0 0 
45 3 1 -15.3036 17.4137 8.35392 0 0 0 
36 3 1 -3.98191 11.3563 3.14192 0 0 0 
30 3 1 -3.95824 -2.89859 12.7188 0 0 0 
42 3 1 -1.30457 15.599 13.5676 0 0 0 
37 1 1 -5.19012 9.30057 9.75419 0 0 0 
38 2 1 -8.19884 10.0393 6.98047 0 0 0 
39 3 1 -9.02853 11.2479 3.47025 0 0 0 
33 3 1 -2.67049 1.09936 16.1112 0 0 0 
41 2 1 -5.1138 14.7829 13.9195 0 0 0 
46 1 1 -10.4273 19.131 13.3833 0 0 0 
44 2 1 -12.7293 16.4894 10.7966 0 0 0 
43 1 1 -9.10055 15.4851 12.4295 0 0 0 
40 1 1 -6.79413 12.4642 11.4241 0 0 0 
47 2 1 -9.0908 22.5466 14.8668 0 0 0 
48 3 1 -6.77127 24.44 16.7604 0 0 0 
ITEM: TIMESTEP
900000
ITEM: NUMBER OF ATOMS
48
ITEM: BOX BOUNDS pp pp pp
-113.393 113.393
-113.393 113.393
-113.393 113.393
ITEM: ATOMS id type mol x y z ix iy iz 
1 1 1 -2.31876 -11.7654 -25.2511 0 0 0 
3 3 1 -1.46668 -15.9018 -18.3945 0 0 0 
2 2 1 -1.5906 -14.24 -21.9285 0 0 0 
5 2 1 -0.24242 -6.29196 -22.5494 0 0 0 
6 3 1 3.05402 -4.53274 -23.3717 0 0 0 
4 1 1 -1.18187 -9.79471 -21.9953 0 0 0 
9 3 1 1.34376 -13.9949 -13.3866 0 0 0 
8 2 1 0.170801 -10.6461 -15.1481 0 0 0 
10 1 1 0.362086 -5.87533 -15.828 0 0 0 
11 2 1 -0.0924764 -7.53026 -12.4432 0 0 0 
13 1 1 1.08479 -2.8561 -13.3334 0 0 0 
14 2 1 4.45485 -0.551701 -13.1129 0 0 0 
7 1 1 -0.292804 -8.36908 -18.5044 0 0 0 
15 3 1 8.25334 -0.407423 -13.1457 0 0 0 
12 3 1 -2.00229 -9.2119 -10.1494 0 0 0 
16 1 1 0.337823 -0.669095 -10.1263 0 0 0 
18 3 1 -0.859718 -0.760839 -3.33644 0 0 0 
17 2 1 -1.49625 -1.68091 -6.69941 0 0 0 
19 1 1 0.56113 2.24529 -7.52286 0 0 0 
22 1 1 0.713437 3.68314 -4.02405 0 0 0 
21 3 1 2.51027 6.05431 -12.1979 0 0 0 
20 2 1 1.47489 6.03068 -8.46216 0 0 0 
25 1 1 0.220621 3.73693 -0.289223 0 0 0 
23 2 1 1.52689 7.56576 -3.16694 0 0 0 
24 3 1 2.75731 11.1999 -3.88383 0 0 0 
27 3 1 -0.73388 -3.20761 2.25812 0 0 0 
26 2 1 -1.44115 0.474205 1.53355 0 0 0 
31 1 1 0.23649 4.1246 7.08718 0 0 0 
29 2 1 0.0820386 8.52859 4.78533 0 0 0 
28 1 1 0.131484 4.81289 3.37462 0 0 0 
32 2 1 1.7418 6.81788 9.38969 0 0 0 
30 3 1 -1.77304 10.908 6.43234 0 0 0 
36 3 1 -0.486231 -5.54223 11.2447 0 0 0 
34 1 1 -0.00380421 2.06959 10.3806 0 0 0 
35 2 1 0.419891 -1.90908 11.5074 0 0 0 
37 1 1 -0.734441 2.10211 14.1028 0 0 0 
38 2 1 -2.07973 -0.729239 15.7779 0 0 0 
39 3 1 -3.16587 -4.11404 16.9725 0 0 0 
41 2 1 2.2608 4.78744 19.8615 0 0 0 
40 1 1 -0.879996 3.74365 17.5539 0 0 0 
33 3 1 1.88868 10.1516 11.1642 0 0 0 
44 2 1 -1.01544 5.05778 24.5242 0 0 0 
45 3 1 2.40499 4.9955 26.0796 0 0 0 
43 1 1 -2.37438 5.37764 20.6913 0 0 0 
46 1 1 -4.69008 6.9572 23.3928 0 0 0 
47 2 1 -3.38307 7.32419 26.623 0 0 0 
42 3 1 5.53965 4.30006 21.8698 0 0 0 
48 3 1 -1.4172 8.02462 29.7975 0 0 0 
ITEM: TIMESTEP
1000000
ITEM: NUMBER OF ATOMS
48
ITEM: BOX BOUNDS pp pp pp
-113.393 113.393
-113.393 113.393
-113.393 113.393
ITEM: ATOMS id type mol x y z ix iy iz 
6 3 1 -6.14757 7.73693 -23.3194 0 0 0 
1 1 1 1.34822 6.55982 -21.5666 0 0 0 
9 3 1 -0.750365 -0.99326 -11.6575 0 0 0 
12 3 1 -13.8087 1.04465 -14.9205 0 0 0 
11 2 1 -10.3303 2.00322 -14.8993 0 0 0 
4 1 1 -1.51645 5.84928 -19.1111 0 0 0 
5 2 1 -5.01375 7.66965 -19.984 0 0 0 
13 1 1 -7.34369 1.67779 -10.4234 0 0 0 
10 1 1 -6.3547 2.92404 -13.9996 0 0 0 
7 1 1 -3.66372 4.15974 -16.4692 0 0 0 
8 2 1 -1.83711 2.10227 -13.466 0 0 0 
2 2 1 0.808754 9.31599 -19.0133 0 0 0 
3 3 1 1.5947 11.7709 -16.1991 0 0 0 
20 2 1 -11.576 -0.762735 -0.801373 0 0 0 
19 1 1 -8.86969 -1.18283 -3.71178 0 0 0 
22 1 1 -7.41976 -2.93303 -0.521802 0 0 0 
18 3 1 -16.351 1.86896 -5.19049 0 0 0 
17 2 1 -13.0041 0.570647 -5.81514 0 0 0 
16 1 1 -9.01398 0.426932 -7.08688 0 0 0 
15 3 1 -3.36394 1.053 -4.5577 0 0 0 
14 2 1 -4.38099 0.337015 -8.02874 0 0 0 
24 3 1 -12.0593 -7.18802 3.78857 0 0 0 
23 2 1 -9.24073 -5.97233 1.47647 0 0 0 
25 1 1 -4.98505 -3.99109 2.49112 0 0 0 
26 2 1 -6.42558 -6.32759 5.49429 0 0 0 
27 3 1 -6.4821 -9.67069 4.07305 0 0 0 
28 1 1 -2.0194 -3.4364 4.86458 0 0 0 
31 1 1 0.566825 -4.15113 7.54444 0 0 0 
29 2 1 0.335945 -0.188385 4.41454 0 0 0 
34 1 1 4.14558 -3.66625 9.30708 0 0 0 
21 3 1 -13.5416 1.31149 1.51401 0 0 0 
30 3 1 2.50854 1.46585 2.16491 0 0 0 
41 2 1 12.2217 2.70949 9.51933 0 0 0 
42 3 1 14.363 3.68389 6.9641 0 0 0 
36 3 1 6.00548 -10.5408 10.7575 0 0 0 
33 3 1 0.137738 -9.72667 12.8317 0 0 0 
32 2 1 0.738388 -6.66552 10.6904 0 0 0 
37 1 1 7.39834 -2.1484 10.9506 0 0 0 
38 2 1 9.36717 -3.58666 14.2067 0 0 0 
35 2 1 5.55763 -6.77933 10.63 0 0 0 
40 1 1 10.3822 -0.0181957 12.0789 0 0 0 
39 3 1 10.4786 -6.39764 16.5823 0 0 0 
43 1 1 13.4658 1.32351 13.6654 0 0 0 
44 2 1 14.1978 0.854742 17.7445 0 0 0 
47 2 1 17.908 5.14302 17.4929 0 0 0 
46 1 1 16.507 3.90496 14.0192 0 0 0 
45 3 1 13.8278 -1.01634 20.8392 0 0 0 
48 3 1 19.2999 5.20913 20.7213 0 0 0 
