ITEM: TIMESTEP
0
ITEM: NUMBER OF ATOMS
60
ITEM: BOX BOUNDS pp pp pp
-122.149 122.149
-122.149 122.149
-122.149 122.149
ITEM: ATOMS id type mol x y z ix iy iz 
3 3 1 -12.4517 -7.27571 -30.8284 0 0 0 
1 1 1 -5.61616 -6.51131 -33.942 0 0 0 
2 2 1 -9.00567 -6.56979 -32.0707 0 0 0 
5 2 1 -1.50316 -6.71533 -31.3213 0 0 0 
9 3 1 -11.2807 -5.80539 -23.7916 0 0 0 
4 1 1 -5.03063 -5.77614 -30.4236 0 0 0 
7 1 1 -4.4451 -5.04098 -26.9052 0 0 0 
8 2 1 -7.83461 -5.09946 -25.0339 0 0 0 
10 1 1 -3.85956 -4.30582 -23.3868 0 0 0 
11 2 1 -0.332099 -5.245 -24.2845 0 0 0 
6 3 1 2.08406 -7.68619 -30.4962 0 0 0 
12 3 1 3.25512 -6.21586 -23.4593 0 0 0 
13 1 1 -3.27403 -3.57065 -19.8684 0 0 0 
14 2 1 -6.66355 -3.62914 -17.9971 0 0 0 
15 3 1 -10.1096 -4.33506 -16.7548 0 0 0 
16 1 1 -2.6885 -2.83549 -16.35 0 0 0 
19 1 1 -2.10297 -2.10033 -12.8316 0 0 0 
20 2 1 -5.49249 -2.15881 -10.9603 0 0 0 
17 2 1 0.838961 -3.77467 -17.2477 0 0 0 
18 3 1 4.42618 -4.74554 -16.4225 0 0 0 
23 2 1 2.01002 -2.30435 -10.2109 0 0 0 
21 3 1 -8.93856 -2.86473 -9.71804 0 0 0 
22 1 1 -1.51744 -1.36516 -9.31319 0 0 0 
25 1 1 -0.931911 -0.629998 -5.79479 0 0 0 
26 2 1 -4.32143 -0.688482 -3.92353 0 0 0 
27 3 1 -7.7675 -1.3944 -2.68124 0 0 0 
24 3 1 5.59724 -3.27521 -9.38575 0 0 0 
29 2 1 3.18108 -0.83402 -3.17409 0 0 0 
30 3 1 6.7683 -1.80488 -2.34895 0 0 0 
28 1 1 -0.34638 0.105164 -2.27638 0 0 0 
36 3 1 7.93936 -0.334554 4.68786 0 0 0 
32 2 1 -3.15037 0.781844 3.11327 0 0 0 
33 3 1 -6.59644 0.075921 4.35556 0 0 0 
38 2 1 -1.97931 2.25217 10.1501 0 0 0 
31 1 1 0.23915 0.840328 1.24202 0 0 0 
34 1 1 0.82468 1.57549 4.76042 0 0 0 
35 2 1 4.35215 0.636306 3.86271 0 0 0 
37 1 1 1.41021 2.31066 8.27882 0 0 0 
39 3 1 -5.42537 1.54625 11.3924 0 0 0 
44 2 1 -0.808244 3.7225 17.1869 0 0 0 
45 3 1 -4.25431 3.01658 18.4292 0 0 0 
40 1 1 1.99574 3.04582 11.7972 0 0 0 
41 2 1 5.52321 2.10663 10.8995 0 0 0 
42 3 1 9.11042 1.13577 11.7247 0 0 0 
43 1 1 2.58127 3.78098 15.3156 0 0 0 
46 1 1 3.1668 4.51615 18.834 0 0 0 
47 2 1 6.69427 3.57696 17.9363 0 0 0 
48 3 1 10.2815 2.6061 18.7614 0 0 0 
51 3 1 -3.08325 4.4869 25.466 0 0 0 
49 1 1 3.75233 5.25131 22.3524 0 0 0 
50 2 1 0.362816 5.19283 24.2237 0 0 0 
52 1 1 4.33786 5.98647 25.8708 0 0 0 
53 2 1 7.86533 5.04729 24.9731 0 0 0 
55 1 1 4.9234 6.72164 29.3892 0 0 0 
54 3 1 11.4525 4.07643 25.7983 0 0 0 
57 3 1 -1.91219 5.95723 32.5028 0 0 0 
56 2 1 1.53388 6.66315 31.2605 0 0 0 
58 1 1 5.50893 7.4568 32.9076 0 0 0 
59 2 1 9.03639 6.51761 32.0099 0 0 0 
60 3 1 12.6236 5.54675 32.8351 0 0 0 
ITEM: TIMESTEP
100000
ITEM: NUMBER OF ATOMS
60
ITEM: BOX BOUNDS pp pp pp
-122.149 122.149
-122.149 122.149
-122.149 122.149
ITEM: ATOMS id type mol x y z ix iy iz 
57 3 1 -0.389099 7.98467 -34.3847 0 0 0 
56 2 1 0.857067 4.81364 -33.7095 0 0 0 
59 2 1 -2.62786 -3.01442 -34.666 0 0 0 
58 1 1 -1.13274 0.661106 -34.203 0 0 0 
60 3 1 -4.98786 -5.6678 -33.9158 0 0 0 
48 3 1 9.53268 3.7424 -20.9382 0 0 0 
51 3 1 5.26056 9.47065 -25.6823 0 0 0 
50 2 1 2.74831 6.59773 -24.9391 0 0 0 
52 1 1 0.7974 3.1129 -26.8606 0 0 0 
49 1 1 1.79794 3.50753 -23.2211 0 0 0 
53 2 1 -1.32095 -0.233787 -27.5939 0 0 0 
55 1 1 -0.290539 2.41893 -30.6985 0 0 0 
54 3 1 1.3563 -2.53828 -29.1554 0 0 0 
47 2 1 6.14711 2.17177 -21.1939 0 0 0 
45 3 1 -1.21753 -5.37799 -17.9157 0 0 0 
41 2 1 6.13284 0.953007 -13.1718 0 0 0 
40 1 1 2.45088 0.616289 -12.1676 0 0 0 
44 2 1 1.25131 -2.46866 -17.8161 0 0 0 
43 1 1 2.31989 0.949554 -16.0059 0 0 0 
46 1 1 2.3294 2.10956 -19.5661 0 0 0 
42 3 1 9.37138 -1.16024 -13.7037 0 0 0 
33 3 1 -6.62726 4.58019 -2.63507 0 0 0 
32 2 1 -4.24276 2.10201 -2.66189 0 0 0 
31 1 1 -1.06117 0.00487264 -1.07806 0 0 0 
34 1 1 -0.148326 0.159345 -4.9292 0 0 0 
35 2 1 -3.10727 -0.646514 -6.99606 0 0 0 
36 3 1 -6.3443 0.5489 -8.11631 0 0 0 
39 3 1 6.77014 -1.02784 -5.36863 0 0 0 
37 1 1 1.60535 0.24302 -8.41638 0 0 0 
38 2 1 5.53016 -0.320591 -8.99446 0 0 0 
24 3 1 0.0151769 -9.52857 6.06103 0 0 0 
23 2 1 -1.1777 -6.71924 7.80226 0 0 0 
25 1 1 0.169612 -1.85329 6.44095 0 0 0 
26 2 1 2.96363 1.11697 6.0155 0 0 0 
27 3 1 4.28832 4.53998 6.09667 0 0 0 
28 1 1 -0.737761 -0.783448 2.79812 0 0 0 
30 3 1 -7.66269 -2.26202 1.14468 0 0 0 
29 2 1 -4.65581 -0.366873 1.63224 0 0 0 
22 1 1 -0.591133 -3.31265 10.0013 0 0 0 
21 3 1 -1.03532 -10.9919 14.0779 0 0 0 
18 3 1 -5.0038 -9.84974 17.2301 0 0 0 
20 2 1 -1.31447 -7.43706 12.6052 0 0 0 
17 2 1 -2.8943 -6.91966 17.1618 0 0 0 
19 1 1 -1.13634 -3.65166 13.9221 0 0 0 
16 1 1 -1.34345 -3.32284 17.7912 0 0 0 
12 3 1 1.52286 4.98287 19.0503 0 0 0 
11 2 1 -0.171807 3.04659 21.8819 0 0 0 
13 1 1 -1.22757 -2.06275 21.4733 0 0 0 
15 3 1 -1.12548 -9.89053 22.0716 0 0 0 
14 2 1 -1.40431 -6.2131 21.8551 0 0 0 
9 3 1 0.748118 -5.33642 30.4018 0 0 0 
8 2 1 0.69424 -1.99903 28.8579 0 0 0 
10 1 1 -1.06656 0.173877 24.6694 0 0 0 
6 3 1 -4.71189 6.75833 26.0977 0 0 0 
5 2 1 -5.22966 4.37392 29.092 0 0 0 
7 1 1 -1.1964 1.57207 28.3036 0 0 0 
4 1 1 -1.88159 3.90164 31.3398 0 0 0 
3 3 1 4.60329 7.46952 33.1451 0 0 0 
2 2 1 1.67315 5.6091 34.0903 0 0 0 
1 1 1 -1.8975 5.63715 34.7152 0 0 0 
ITEM: TIMESTEP
200000
ITEM: NUMBER OF ATOMS
60
ITEM: BOX BOUNDS pp pp pp
-122.149 122.149
-122.149 122.149
-122.149 122.149
ITEM: ATOMS id type mol x y z ix iy iz 
9 3 1 7.94239 -22.2767 -12.8001 0 0 0 
12 3 1 13.3448 -16.9617 -10.7601 0 0 0 
1 1 1 10.2386 -24.0098 -24.4679 0 0 0 
2 2 1 13.9904 -23.8512 -23.0691 0 0 0 
3 3 1 17.7957 -23.6324 -23.4798 0 0 0 
6 3 1 8.99041 -13.0309 -23.1857 0 0 0 
5 2 1 10.1367 -16.5435 -23.3568 0 0 0 
4 1 1 10.0588 -20.5862 -22.6157 0 0 0 
13 1 1 9.04547 -12.3851 -15.0737 0 0 0 
8 2 1 9.27357 -20.6022 -15.873 0 0 0 
11 2 1 10.4637 -16.4288 -12.8208 0 0 0 
10 1 1 9.62203 -15.6342 -16.8023 0 0 0 
7 1 1 9.96666 -18.6444 -19.1898 0 0 0 
16 1 1 7.38644 -9.5528 -13.11 0 0 0 
19 1 1 5.03145 -7.46831 -10.8436 0 0 0 
14 2 1 11.5555 -9.92067 -14.3591 0 0 0 
17 2 1 8.971 -5.81085 -13.023 0 0 0 
15 3 1 14.3666 -7.6801 -15.0879 0 0 0 
18 3 1 8.81851 -2.44616 -11.8165 0 0 0 
29 2 1 3.34764 -3.40658 0.624712 0 0 0 
21 3 1 2.59317 -10.2167 -4.11105 0 0 0 
28 1 1 1.11328 -1.92871 -2.18538 0 0 0 
31 1 1 -0.588585 0.262259 0.552597 0 0 0 
23 2 1 0.577254 -1.96329 -10.4933 0 0 0 
20 2 1 3.02318 -8.60878 -7.4285 0 0 0 
22 1 1 2.92874 -4.69305 -9.12905 0 0 0 
25 1 1 1.7951 -2.89574 -5.91932 0 0 0 
33 3 1 -3.14138 7.13841 -1.49031 0 0 0 
32 2 1 -2.53615 3.75738 -0.331875 0 0 0 
24 3 1 -0.673523 1.05129 -12.4573 0 0 0 
27 3 1 1.87827 3.45218 -8.08593 0 0 0 
26 2 1 0.698526 1.06791 -5.66017 0 0 0 
30 3 1 6.99514 -4.11749 1.52521 0 0 0 
36 3 1 1.76058 -3.21402 8.01163 0 0 0 
37 1 1 -3.6794 3.77503 6.27443 0 0 0 
40 1 1 -4.57175 5.74526 9.39672 0 0 0 
34 1 1 -1.90216 1.38207 3.90805 0 0 0 
35 2 1 -0.612154 -0.467142 7.37745 0 0 0 
41 2 1 -2.55283 6.51025 12.8469 0 0 0 
38 2 1 -6.64256 5.84036 4.51653 0 0 0 
43 1 1 -6.53609 8.35268 11.2271 0 0 0 
39 3 1 -10.134 5.87301 3.37961 0 0 0 
44 2 1 -10.2168 10.0443 10.5793 0 0 0 
45 3 1 -11.8515 13.1304 9.28927 0 0 0 
48 3 1 -1.24731 14.0484 17.6387 0 0 0 
47 2 1 -4.61154 12.3505 16.645 0 0 0 
42 3 1 0.477172 8.87739 13.1661 0 0 0 
51 3 1 -16.293 15.6217 15.2297 0 0 0 
50 2 1 -12.4659 15.3808 15.6328 0 0 0 
52 1 1 -9.86299 16.0988 19.1383 0 0 0 
46 1 1 -7.4742 10.7333 14.2035 0 0 0 
49 1 1 -9.23389 13.3167 16.5343 0 0 0 
60 3 1 -20.8007 24.9998 21.2189 0 0 0 
58 1 1 -14.7886 20.6136 23.0856 0 0 0 
59 2 1 -17.8953 22.8839 21.4687 0 0 0 
54 3 1 -3.88652 19.0221 22.2567 0 0 0 
53 2 1 -7.0539 17.7144 21.5568 0 0 0 
55 1 1 -11.906 18.4201 21.5672 0 0 0 
56 2 1 -10.4755 19.2958 25.1029 0 0 0 
57 3 1 -7.66076 19.2415 27.1737 0 0 0 
ITEM: TIMESTEP
300000
ITEM: NUMBER OF ATOMS
60
ITEM: BOX BOUNDS pp pp pp
-122.149 122.149
-122.149 122.149
-122.149 122.149
ITEM: ATOMS id type mol x y z ix iy iz 
36 3 1 13.6251 3.14269 -7.15485 0 0 0 
2 2 1 0.890749 -7.98969 -9.79628 0 0 0 
3 3 1 -2.18639 -9.79056 -9.49915 0 0 0 
45 3 1 5.60775 -13.6767 -1.1566 0 0 0 
44 2 1 3.88672 -10.5271 -2.57235 0 0 0 
42 3 1 5.53538 -10.7125 -9.03668 0 0 0 
12 3 1 -6.97602 -9.61037 0.823786 0 0 0 
5 2 1 -0.350651 -7.64093 -4.13544 0 0 0 
7 1 1 -0.225088 -3.0268 -2.98224 0 0 0 
6 3 1 -1.27368 -11.2392 -4.10093 0 0 0 
11 2 1 -5.28917 -6.16738 0.805052 0 0 0 
10 1 1 -3.09433 -2.92474 -0.302819 0 0 0 
1 1 1 3.05268 -4.45272 -9.81292 0 0 0 
8 2 1 1.27244 -0.410673 -0.261526 0 0 0 
4 1 1 1.19491 -4.542 -6.24992 0 0 0 
43 1 1 3.80076 -6.46662 -2.98932 0 0 0 
40 1 1 5.60139 -4.22477 -5.56305 0 0 0 
41 2 1 6.03259 -8.03366 -6.91259 0 0 0 
38 2 1 8.07231 -2.71923 -9.68347 0 0 0 
37 1 1 6.54823 -0.603701 -6.49828 0 0 0 
39 3 1 8.23103 -4.14307 -12.9838 0 0 0 
30 3 1 -2.47949 3.47695 -5.56316 0 0 0 
31 1 1 5.38996 5.65189 -2.96251 0 0 0 
29 2 1 0.412214 4.90378 -3.32383 0 0 0 
34 1 1 6.63679 2.89758 -5.35444 0 0 0 
28 1 1 2.59109 7.10799 -0.634763 0 0 0 
32 2 1 9.10441 6.97584 -3.27588 0 0 0 
35 2 1 10.1781 3.27086 -7.27312 0 0 0 
33 3 1 12.5675 7.8235 -4.27088 0 0 0 
27 3 1 7.29324 11.5274 2.87626 0 0 0 
48 3 1 -1.57132 -13.0774 0.694335 0 0 0 
51 3 1 -4.9771 -8.51724 7.63112 0 0 0 
50 2 1 -3.22773 -6.10353 5.82231 0 0 0 
56 2 1 -5.94988 1.8966 8.82114 0 0 0 
55 1 1 -2.66954 1.8409 6.76522 0 0 0 
52 1 1 -1.68555 -1.17571 4.58903 0 0 0 
13 1 1 -5.59817 -1.21837 2.22417 0 0 0 
49 1 1 -0.642663 -4.71838 2.95535 0 0 0 
46 1 1 1.17902 -6.76764 0.106984 0 0 0 
47 2 1 -0.483164 -9.72782 0.954478 0 0 0 
15 3 1 -11.854 -5.25009 3.28156 0 0 0 
18 3 1 -11.3128 4.68842 9.32587 0 0 0 
14 2 1 -8.89406 -3.03698 3.74935 0 0 0 
58 1 1 -2.8739 5.27944 8.59124 0 0 0 
17 2 1 -9.72218 3.69841 6.20853 0 0 0 
59 2 1 -1.17023 8.83378 7.92673 0 0 0 
60 3 1 1.76658 10.9711 7.43423 0 0 0 
22 1 1 -3.02363 8.13409 3.89441 0 0 0 
53 2 1 -2.04059 2.0914 2.19675 0 0 0 
16 1 1 -6.72427 2.10627 3.90693 0 0 0 
19 1 1 -5.93075 5.73223 4.44337 0 0 0 
20 2 1 -7.23484 9.16383 6.36017 0 0 0 
54 3 1 -4.05999 4.12636 0.104772 0 0 0 
9 3 1 3.85963 1.9688 1.01474 0 0 0 
23 2 1 -1.86088 12.0691 4.31011 0 0 0 
21 3 1 -7.07991 8.19412 9.90649 0 0 0 
25 1 1 0.387379 8.57315 2.21367 0 0 0 
26 2 1 3.65208 10.8598 2.87416 0 0 0 
24 3 1 -0.229575 15.2861 5.66598 0 0 0 
57 3 1 -9.19675 -0.119866 9.16789 0 0 0 
ITEM: TIMESTEP
400000
ITEM: NUMBER OF ATOMS
60
ITEM: BOX BOUNDS pp pp pp
-122.149 122.149
-122.149 122.149
-122.149 122.149
ITEM: ATOMS id type mol x y z ix iy iz 
39 3 1 -9.88787 -9.58579 -9.24807 0 0 0 
42 3 1 -1.17022 -13.4893 -5.05294 0 0 0 
45 3 1 3.34981 -10.9786 -3.27155 0 0 0 
36 3 1 -13.2891 -5.39207 -7.37122 0 0 0 
35 2 1 -12.1178 -5.78554 -4.16464 0 0 0 
34 1 1 -10.2166 -3.3106 -1.55908 0 0 0 
38 2 1 -8.28796 -8.25846 -6.39717 0 0 0 
41 2 1 -2.09091 -9.92597 -5.88292 0 0 0 
37 1 1 -7.42725 -5.24018 -3.59437 0 0 0 
40 1 1 -3.7935 -6.41879 -4.6267 0 0 0 
43 1 1 -0.107151 -5.44911 -5.5654 0 0 0 
44 2 1 2.37302 -8.39978 -5.94616 0 0 0 
46 1 1 2.5656 -2.95762 -6.1728 0 0 0 
47 2 1 5.79539 -2.25916 -8.55573 0 0 0 
8 2 1 2.3916 -5.13563 -0.502098 0 0 0 
7 1 1 5.68143 -3.99014 -2.52952 0 0 0 
9 3 1 0.477223 -7.13632 1.89169 0 0 0 
48 3 1 8.97397 -0.841381 -10.007 0 0 0 
49 1 1 4.41353 0.27305 -4.87906 0 0 0 
1 1 1 9.22392 -5.58418 -9.2146 0 0 0 
4 1 1 7.34279 -5.11135 -5.87983 0 0 0 
5 2 1 8.58157 -1.74404 -3.92545 0 0 0 
2 2 1 11.7757 -3.36249 -7.26647 0 0 0 
3 3 1 14.9468 -1.74652 -6.07118 0 0 0 
50 2 1 7.65699 2.51802 -6.06007 0 0 0 
52 1 1 4.77345 2.76129 -1.82348 0 0 0 
53 2 1 1.28175 3.1003 0.229205 0 0 0 
56 2 1 9.70932 6.11536 2.58139 0 0 0 
51 3 1 9.53157 4.31243 -8.58263 0 0 0 
57 3 1 12.7118 7.94073 2.97207 0 0 0 
33 3 1 -17.7165 -3.40899 1.47035 0 0 0 
32 2 1 -15.0591 -1.67622 -0.674451 0 0 0 
31 1 1 -11.5153 -0.823316 1.01622 0 0 0 
10 1 1 6.15714 -1.40128 0.41224 0 0 0 
6 3 1 11.3816 -0.0184278 -2.83934 0 0 0 
30 3 1 -18.6149 2.03586 1.90511 0 0 0 
29 2 1 -15.2136 2.75518 3.34958 0 0 0 
27 3 1 -13.8447 8.53227 6.29961 0 0 0 
26 2 1 -12.0083 5.29467 7.45022 0 0 0 
28 1 1 -11.3567 1.94879 3.76135 0 0 0 
54 3 1 -2.33623 4.18277 0.865938 0 0 0 
23 2 1 -6.5883 6.71676 7.99465 0 0 0 
25 1 1 -8.72105 3.57044 6.10983 0 0 0 
22 1 1 -4.97323 3.84282 6.84719 0 0 0 
19 1 1 -1.08724 3.6335 7.19998 0 0 0 
20 2 1 -1.7309 6.39856 9.5617 0 0 0 
16 1 1 2.51253 2.52582 5.85701 0 0 0 
55 1 1 6.10341 4.98245 1.17326 0 0 0 
11 2 1 8.83131 0.661062 2.24817 0 0 0 
13 1 1 4.76045 0.740583 3.24753 0 0 0 
14 2 1 7.13708 2.78059 5.56938 0 0 0 
17 2 1 3.67929 4.27297 9.35882 0 0 0 
58 1 1 5.10971 7.54674 3.8494 0 0 0 
15 3 1 9.77036 4.56658 6.78023 0 0 0 
59 2 1 1.81093 7.85048 6.14296 0 0 0 
12 3 1 12.0529 0.697207 4.17575 0 0 0 
24 3 1 -6.69631 10.5741 8.23137 0 0 0 
60 3 1 -1.3211 7.80638 4.56155 0 0 0 
21 3 1 -1.53311 9.95523 9.24558 0 0 0 
18 3 1 6.28118 6.05028 11.0466 0 0 0 
ITEM: TIMESTEP
500000
ITEM: NUMBER OF ATOMS
60
ITEM: BOX BOUNDS pp pp pp
-122.149 122.149
-122.149 122.149
-122.149 122.149
ITEM: ATOMS id type mol x y z ix iy iz 
39 3 1 3.01307 -8.55935 -12.3926 0 0 0 
42 3 1 6.86866 -0.511162 -13.1024 0 0 0 
32 2 1 -5.85207 -10.4217 -1.74825 0 0 0 
36 3 1 -0.0612803 -14.3828 -6.79158 0 0 0 
35 2 1 -0.838148 -10.5961 -6.39599 0 0 0 
33 3 1 -6.58217 -13.9437 -0.864236 0 0 0 
3 3 1 5.37984 -11.3006 -5.66666 0 0 0 
30 3 1 -10.9827 -9.44701 -0.407956 0 0 0 
34 1 1 -2.03853 -7.43684 -4.21278 0 0 0 
31 1 1 -4.27067 -6.75742 -1.13887 0 0 0 
37 1 1 0.621906 -5.76771 -6.62178 0 0 0 
2 2 1 7.19097 -8.42389 -5.94146 0 0 0 
38 2 1 2.4795 -6.56534 -9.55428 0 0 0 
41 2 1 5.74002 -1.32006 -9.47803 0 0 0 
40 1 1 2.95887 -2.67603 -6.90355 0 0 0 
4 1 1 7.76566 -4.38685 -6.10348 0 0 0 
7 1 1 7.17508 -1.86039 -3.25468 0 0 0 
5 2 1 4.85893 -5.66704 -3.30251 0 0 0 
1 1 1 9.16632 -6.58097 -9.08781 0 0 0 
6 3 1 3.6186 -7.96421 -0.446075 0 0 0 
8 2 1 3.41701 -1.55005 -1.77949 0 0 0 
9 3 1 0.626454 -0.0264562 -0.439575 0 0 0 
43 1 1 3.7795 0.799887 -5.43158 0 0 0 
49 1 1 0.271749 4.77942 -0.212615 0 0 0 
46 1 1 2.73448 3.37217 -2.83353 0 0 0 
47 2 1 4.35306 7.02579 -2.97471 0 0 0 
44 2 1 6.11841 3.96452 -6.05749 0 0 0 
11 2 1 9.02685 4.1741 -1.08218 0 0 0 
45 3 1 7.60779 6.05131 -8.60066 0 0 0 
10 1 1 6.71776 0.995548 -0.670316 0 0 0 
12 3 1 11.8989 5.96241 -2.41587 0 0 0 
48 3 1 5.64341 10.2384 -4.316 0 0 0 
54 3 1 -8.65724 -0.51236 1.26318 0 0 0 
27 3 1 -9.17728 -7.78472 7.49972 0 0 0 
26 2 1 -8.64208 -4.43384 5.82593 0 0 0 
29 2 1 -9.08226 -6.45639 0.503832 0 0 0 
28 1 1 -5.66055 -4.62243 1.85196 0 0 0 
25 1 1 -5.79164 -1.94449 4.63332 0 0 0 
24 3 1 -9.98718 -1.40349 10.0435 0 0 0 
23 2 1 -7.57366 0.227225 8.1197 0 0 0 
52 1 1 -3.06688 4.51651 1.75532 0 0 0 
53 2 1 -5.92917 1.40432 1.73665 0 0 0 
55 1 1 -5.28133 6.02897 4.66868 0 0 0 
58 1 1 -7.47399 6.96356 7.74224 0 0 0 
20 2 1 -3.2576 5.11785 9.11111 0 0 0 
22 1 1 -4.21805 1.1653 6.26534 0 0 0 
19 1 1 -1.08018 3.40526 6.09284 0 0 0 
56 2 1 -3.83945 9.53025 6.01164 0 0 0 
50 2 1 -0.215868 8.3269 1.73584 0 0 0 
17 2 1 1.87793 7.42652 7.02338 0 0 0 
16 1 1 2.44169 4.31899 4.41858 0 0 0 
13 1 1 5.15602 3.67221 1.86641 0 0 0 
14 2 1 5.29399 7.48934 2.74434 0 0 0 
57 3 1 -2.8325 10.3253 9.57872 0 0 0 
51 3 1 -0.821616 11.6697 0.803467 0 0 0 
18 3 1 2.38708 11.1204 7.49679 0 0 0 
15 3 1 5.17332 11.0253 2.29269 0 0 0 
60 3 1 -11.8734 3.49154 13.3708 0 0 0 
59 2 1 -9.78705 4.74841 10.3347 0 0 0 
21 3 1 -5.34065 5.83817 11.8846 0 0 0 
ITEM: TIMESTEP
600000
ITEM: NUMBER OF ATOMS
60
ITEM: BOX BOUNDS pp pp pp
-122.149 122.149
-122.149 122.149
-122.149 122.149
ITEM: ATOMS id type mol x y z ix iy iz 
27 3 1 -9.0692 -11.4044 -3.18857 0 0 0 
33 3 1 2.62132 -15.1353 4.52758 0 0 0 
35 2 1 7.39259 -10.0117 1.02026 0 0 0 
57 3 1 -11.8725 0.260358 -6.56209 0 0 0 
28 1 1 -3.5787 -7.78858 -0.123686 0 0 0 
26 2 1 -8.10707 -8.90524 -0.736389 0 0 0 
25 1 1 -6.57788 -5.29932 -0.469382 0 0 0 
9 3 1 0.473435 -2.00517 1.62954 0 0 0 
40 1 1 7.16448 -1.81159 -1.60204 0 0 0 
41 2 1 10.512 -0.532783 -3.45255 0 0 0 
59 2 1 -12.6698 10.1067 0.178329 0 0 0 
58 1 1 -12.2266 6.45014 -0.937543 0 0 0 
53 2 1 -7.18415 1.37657 -3.99325 0 0 0 
56 2 1 -11.3184 2.4419 -3.41039 0 0 0 
55 1 1 -8.78175 5.37657 -2.30337 0 0 0 
52 1 1 -4.96988 4.57529 -2.64406 0 0 0 
50 2 1 -2.16354 8.80654 -3.40186 0 0 0 
49 1 1 -1.08606 4.90529 -2.72749 0 0 0 
47 2 1 2.26141 7.91161 -1.90277 0 0 0 
46 1 1 2.55804 3.89169 -2.1203 0 0 0 
44 2 1 7.48856 5.41337 -0.779821 0 0 0 
43 1 1 5.85074 1.78864 -1.61877 0 0 0 
45 3 1 9.09723 5.61843 2.54786 0 0 0 
42 3 1 14.2407 0.180713 -4.02946 0 0 0 
51 3 1 -2.51837 12.1567 -2.31106 0 0 0 
48 3 1 2.85274 10.7337 -4.4459 0 0 0 
30 3 1 -4.4895 -14.8948 0.862192 0 0 0 
29 2 1 -3.10314 -11.7371 -0.0225407 0 0 0 
32 2 1 1.33932 -12.4207 2.04529 0 0 0 
36 3 1 10.5776 -11.3279 1.26419 0 0 0 
24 3 1 -11.5431 -5.42904 -5.53083 0 0 0 
23 2 1 -10.163 -3.01677 -2.93317 0 0 0 
54 3 1 -6.32415 -1.50261 -5.77732 0 0 0 
31 1 1 0.0725732 -8.83708 0.415407 0 0 0 
22 1 1 -7.35841 -1.43476 -0.479144 0 0 0 
37 1 1 6.56265 -5.40389 -1.07378 0 0 0 
34 1 1 3.95744 -7.99935 -0.0993552 0 0 0 
3 3 1 4.28638 -4.63752 6.7241 0 0 0 
2 2 1 6.69082 -5.64689 4.16045 0 0 0 
1 1 1 10.2851 -6.09854 3.60229 0 0 0 
4 1 1 9.36761 -2.25522 3.06033 0 0 0 
8 2 1 3.4128 -0.0604174 2.31801 0 0 0 
39 3 1 14.062 -6.23014 -0.103885 0 0 0 
38 2 1 10.6021 -5.19427 -1.36282 0 0 0 
21 3 1 -10.8485 4.42264 4.72748 0 0 0 
20 2 1 -9.86202 3.10287 1.33563 0 0 0 
17 2 1 -5.46669 6.6507 1.89494 0 0 0 
14 2 1 -1.39999 7.88279 2.40257 0 0 0 
18 3 1 -7.82484 8.85347 0.678651 0 0 0 
19 1 1 -6.03288 1.84114 0.92884 0 0 0 
16 1 1 -2.81541 3.71908 1.73857 0 0 0 
13 1 1 0.878302 4.48367 2.21911 0 0 0 
7 1 1 7.34643 1.03906 2.74049 0 0 0 
11 2 1 4.35812 7.76177 3.0406 0 0 0 
10 1 1 4.69274 3.75742 2.61292 0 0 0 
5 2 1 12.1945 0.0142804 1.42309 0 0 0 
6 3 1 15.1758 1.76844 1.12454 0 0 0 
60 3 1 -15.0775 12.6133 1.47391 0 0 0 
15 3 1 -2.54594 10.6179 4.67306 0 0 0 
12 3 1 3.79715 11.0917 1.73489 0 0 0 
ITEM: TIMESTEP
700000
ITEM: NUMBER OF ATOMS
60
ITEM: BOX BOUNDS pp pp pp
-122.149 122.149
-122.149 122.149
-122.149 122.149
ITEM: ATOMS id type mol x y z ix iy iz 
15 3 1 -3.89947 0.0346678 -12.473 0 0 0 
12 3 1 0.802071 6.65214 -11.3064 0 0 0 
48 3 1 3.2692 0.824209 -10.6874 0 0 0 
60 3 1 -0.0217008 -12.6326 -11.974 0 0 0 
59 2 1 1.98434 -12.3326 -8.8256 0 0 0 
23 2 1 -4.25973 -10.4387 0.958333 0 0 0 
24 3 1 -4.9733 -14.0239 0.762487 0 0 0 
58 1 1 1.66118 -11.7509 -4.99466 0 0 0 
21 3 1 -4.16038 -10.9131 -7.15458 0 0 0 
20 2 1 -3.38979 -8.26418 -4.77094 0 0 0 
19 1 1 -3.04452 -4.79731 -2.99422 0 0 0 
16 1 1 -2.33329 -1.10038 -4.13689 0 0 0 
17 2 1 -1.80154 -0.847384 -0.135286 0 0 0 
51 3 1 -1.75749 -4.58924 -9.76065 0 0 0 
52 1 1 1.81748 -4.6458 -2.22205 0 0 0 
55 1 1 1.76622 -8.439 -3.01991 0 0 0 
50 2 1 0.810798 -3.53687 -7.09484 0 0 0 
49 1 1 1.84602 -1.12599 -3.8097 0 0 0 
14 2 1 -2.11529 0.782968 -9.37902 0 0 0 
13 1 1 -2.08505 2.45697 -5.6012 0 0 0 
10 1 1 -1.65828 6.10845 -4.4376 0 0 0 
7 1 1 -1.18215 8.83936 -1.50187 0 0 0 
8 2 1 -2.21149 5.8266 0.67882 0 0 0 
9 3 1 -2.08895 3.27155 3.21765 0 0 0 
11 2 1 -1.26224 5.8774 -8.30863 0 0 0 
46 1 1 2.53542 2.64206 -3.29873 0 0 0 
47 2 1 2.692 2.56928 -7.41443 0 0 0 
44 2 1 3.46676 7.49614 -4.2012 0 0 0 
43 1 1 2.94709 5.59181 -0.740734 0 0 0 
6 3 1 -0.671155 11.059 -6.36613 0 0 0 
5 2 1 -0.574722 12.5182 -2.95334 0 0 0 
45 3 1 4.21858 10.0266 -6.67739 0 0 0 
26 2 1 -1.47834 -10.2233 6.35869 0 0 0 
57 3 1 1.02844 -13.2224 2.61151 0 0 0 
22 1 1 -3.1668 -7.11216 0.0719033 0 0 0 
27 3 1 0.4042 -12.1344 8.98186 0 0 0 
18 3 1 -1.80439 -1.48132 3.33037 0 0 0 
28 1 1 -1.63693 -4.94248 6.82701 0 0 0 
25 1 1 -2.37341 -7.22828 3.79116 0 0 0 
53 2 1 1.41616 -5.73694 1.52576 0 0 0 
31 1 1 -0.751048 -1.5516 8.63874 0 0 0 
56 2 1 1.50716 -10.9731 -0.160042 0 0 0 
54 3 1 2.75324 -6.11946 5.10116 0 0 0 
3 3 1 -3.29111 7.39439 5.93097 0 0 0 
2 2 1 -0.916249 10.0138 5.0384 0 0 0 
36 3 1 3.26731 0.865633 1.08824 0 0 0 
34 1 1 0.682558 1.91034 7.94006 0 0 0 
37 1 1 2.16004 5.07444 6.4395 0 0 0 
35 2 1 3.17506 1.57198 4.7203 0 0 0 
38 2 1 3.15826 8.39659 7.58149 0 0 0 
40 1 1 3.05888 6.4749 3.05845 0 0 0 
41 2 1 4.61665 9.29854 1.55064 0 0 0 
4 1 1 -0.374949 11.7787 0.894829 0 0 0 
1 1 1 0.269838 13.8796 4.1668 0 0 0 
39 3 1 2.4198 11.7286 9.02032 0 0 0 
42 3 1 4.90131 11.9358 -0.7662 0 0 0 
29 2 1 -1.22592 -5.65218 10.5911 0 0 0 
30 3 1 -1.99539 -7.4449 13.9175 0 0 0 
32 2 1 -0.797298 0.117207 12.2073 0 0 0 
33 3 1 -1.39036 -0.485956 15.6425 0 0 0 
ITEM: TIMESTEP
800000
ITEM: NUMBER OF ATOMS
60
ITEM: BOX BOUNDS pp pp pp
-122.149 122.149
-122.149 122.149
-122.149 122.149
ITEM: ATOMS id type mol x y z ix iy iz 
27 3 1 -8.61132 -0.527231 -13.3051 0 0 0 
30 3 1 -9.94691 8.19749 -8.02121 0 0 0 
29 2 1 -8.48002 4.75618 -7.5316 0 0 0 
32 2 1 -1.48848 7.59552 -9.75467 0 0 0 
33 3 1 -0.80501 10.1247 -12.6097 0 0 0 
21 3 1 -8.99888 -11.723 -0.59708 0 0 0 
24 3 1 -8.14158 -7.11567 -10.0469 0 0 0 
57 3 1 -9.48267 0.912422 -3.02439 0 0 0 
20 2 1 -6.78565 -8.52365 -0.676937 0 0 0 
23 2 1 -8.08841 -6.14471 -6.60593 0 0 0 
25 1 1 -5.91656 -1.64798 -6.27643 0 0 0 
22 1 1 -5.43862 -4.60051 -3.9184 0 0 0 
19 1 1 -3.48045 -6.18945 -0.833975 0 0 0 
26 2 1 -8.32237 -0.947862 -9.42695 0 0 0 
54 3 1 -1.47822 -0.938615 -2.40627 0 0 0 
28 1 1 -5.46119 2.11852 -6.93719 0 0 0 
31 1 1 -3.0913 5.20565 -6.88146 0 0 0 
9 3 1 2.45939 1.90118 -3.01384 0 0 0 
34 1 1 -0.439898 7.05993 -4.81319 0 0 0 
37 1 1 2.45733 7.39312 -2.31073 0 0 0 
2 2 1 8.96918 5.19247 -3.37134 0 0 0 
3 3 1 7.08017 3.4447 -6.14455 0 0 0 
35 2 1 1.18398 10.8812 -4.97292 0 0 0 
8 2 1 5.2616 1.92674 -0.487494 0 0 0 
1 1 1 12.3913 6.48045 -1.35861 0 0 0 
38 2 1 5.98836 9.36718 -2.2836 0 0 0 
39 3 1 8.56446 11.1531 -0.752211 0 0 0 
36 3 1 1.41974 12.243 -1.58357 0 0 0 
60 3 1 -12.782 -12.1451 4.90587 0 0 0 
59 2 1 -12.0492 -9.42357 2.75931 0 0 0 
18 3 1 -5.54167 -8.71727 4.80318 0 0 0 
15 3 1 1.05954 -7.56471 9.06663 0 0 0 
56 2 1 -9.1276 -2.88786 -2.04701 0 0 0 
58 1 1 -11.1534 -5.93744 0.747487 0 0 0 
53 2 1 -4.21566 -1.60839 -0.406347 0 0 0 
17 2 1 -2.80217 -7.94062 2.69796 0 0 0 
16 1 1 -0.402502 -5.62013 1.42734 0 0 0 
55 1 1 -7.75099 -4.26561 1.48896 0 0 0 
52 1 1 -4.24804 -2.86758 2.86327 0 0 0 
50 2 1 -2.51426 -3.93849 8.36178 0 0 0 
49 1 1 -1.08051 -1.90208 5.1128 0 0 0 
51 3 1 -3.9221 -6.76734 10.1949 0 0 0 
14 2 1 1.06449 -5.78338 6.07149 0 0 0 
47 2 1 2.62028 -1.5688 8.24439 0 0 0 
13 1 1 2.85503 -3.93008 2.96202 0 0 0 
11 2 1 6.71784 -3.46935 6.34775 0 0 0 
10 1 1 5.88854 -1.71588 2.71612 0 0 0 
12 3 1 7.91874 -6.47795 8.29203 0 0 0 
45 3 1 8.28395 1.26157 9.36532 0 0 0 
48 3 1 3.90499 -1.20447 11.5585 0 0 0 
46 1 1 2.26679 0.243506 5.21303 0 0 0 
40 1 1 4.21703 5.92558 0.867898 0 0 0 
43 1 1 4.21704 3.2216 3.63345 0 0 0 
7 1 1 8.45188 0.980162 1.66577 0 0 0 
4 1 1 11.3047 3.60038 0.996521 0 0 0 
44 2 1 6.4591 1.67683 6.31556 0 0 0 
41 2 1 7.44993 6.71362 2.82441 0 0 0 
42 3 1 10.6518 8.1516 2.5928 0 0 0 
6 3 1 13.2941 1.37263 7.48025 0 0 0 
5 2 1 12.586 1.80464 4.03323 0 0 0 
ITEM: TIMESTEP
900000
ITEM: NUMBER OF ATOMS
60
ITEM: BOX BOUNDS pp pp pp
-122.149 122.149
-122.149 122.149
-122.149 122.149
ITEM: ATOMS id type mol x y z ix iy iz 
45 3 1 -2.61028 -1.06543 -11.7393 0 0 0 
12 3 1 -2.0129 4.76583 -11.6025 0 0 0 
42 3 1 4.00412 7.11256 -11.1701 0 0 0 
51 3 1 -8.55803 -9.25275 -4.12054 0 0 0 
15 3 1 -9.65584 3.30286 -8.60535 0 0 0 
18 3 1 -11.6627 -4.5298 -4.364 0 0 0 
48 3 1 -5.70253 -4.8781 -10.2422 0 0 0 
50 2 1 -5.19869 -8.01297 -2.97946 0 0 0 
16 1 1 -5.65911 -0.515453 -2.57402 0 0 0 
17 2 1 -8.54981 -3.36596 -3.3085 0 0 0 
49 1 1 -2.3622 -5.04744 -2.44564 0 0 0 
47 2 1 -4.81654 -4.0566 -6.61181 0 0 0 
46 1 1 -1.67749 -2.19213 -5.0254 0 0 0 
44 2 1 -1.93662 0.252151 -8.57948 0 0 0 
14 2 1 -7.02671 2.13815 -6.60877 0 0 0 
11 2 1 -2.09834 5.02989 -7.74977 0 0 0 
13 1 1 -3.93418 2.37325 -4.22541 0 0 0 
10 1 1 -1.06886 4.96757 -3.85433 0 0 0 
8 2 1 -0.081659 3.42032 0.533736 0 0 0 
43 1 1 0.406996 0.909285 -6.04986 0 0 0 
7 1 1 1.45923 6.53937 -1.50871 0 0 0 
40 1 1 3.24501 3.29288 -4.9353 0 0 0 
41 2 1 2.65035 4.38074 -8.85631 0 0 0 
38 2 1 7.77893 5.36847 -5.74001 0 0 0 
37 1 1 5.83078 4.55257 -2.29347 0 0 0 
39 3 1 9.0714 4.47685 -9.09584 0 0 0 
5 2 1 4.11365 9.77309 -3.96664 0 0 0 
6 3 1 3.06115 11.008 -7.43835 0 0 0 
4 1 1 3.97915 8.97714 -0.0662745 0 0 0 
56 2 1 -4.30419 -12.64 3.36161 0 0 0 
57 3 1 -5.59216 -14.1987 0.23171 0 0 0 
21 3 1 -11.3014 -7.13828 2.15919 0 0 0 
19 1 1 -5.66549 -2.67784 0.79918 0 0 0 
20 2 1 -7.90848 -5.87175 1.72593 0 0 0 
52 1 1 -1.72738 -6.86721 0.968238 0 0 0 
23 2 1 -3.69533 -5.95846 6.67839 0 0 0 
22 1 1 -3.49281 -3.15919 4.16066 0 0 0 
55 1 1 -1.97102 -9.35426 4.08739 0 0 0 
24 3 1 -5.27018 -8.52686 9.1293 0 0 0 
58 1 1 -1.51128 -11.2426 7.47881 0 0 0 
25 1 1 -0.457059 -1.93104 6.10794 0 0 0 
53 2 1 0.648596 -5.6319 4.02045 0 0 0 
54 3 1 4.27407 -5.35112 5.26628 0 0 0 
26 2 1 1.64165 -3.47785 9.19544 0 0 0 
28 1 1 2.45946 0.579591 6.51073 0 0 0 
29 2 1 4.99837 1.64318 9.57539 0 0 0 
9 3 1 -0.944035 0.0548989 0.161505 0 0 0 
3 3 1 2.8825 5.95371 6.89862 0 0 0 
31 1 1 5.0245 3.03482 4.7265 0 0 0 
32 2 1 8.19825 5.10986 6.13043 0 0 0 
34 1 1 6.48739 4.49903 1.51207 0 0 0 
35 2 1 8.96195 7.23279 0.0674847 0 0 0 
2 2 1 4.54375 7.76839 3.99093 0 0 0 
33 3 1 8.58952 7.23709 8.95396 0 0 0 
36 3 1 11.269 8.99963 -2.18444 0 0 0 
1 1 1 6.14601 10.9414 2.26625 0 0 0 
59 2 1 0.091343 -9.14837 9.88984 0 0 0 
60 3 1 3.41438 -7.57969 10.9403 0 0 0 
27 3 1 1.93984 -2.39634 12.7786 0 0 0 
30 3 1 6.37121 3.45363 12.6761 0 0 0 
ITEM: TIMESTEP
1000000
ITEM: NUMBER OF ATOMS
60
ITEM: BOX BOUNDS pp pp pp
-122.149 122.149
-122.149 122.149
-122.149 122.149
ITEM: ATOMS id type mol x y z ix iy iz 
30 3 1 -0.273224 -5.08032 -14.4951 0 0 0 
27 3 1 -5.09009 -8.15506 -11.6982 0 0 0 
29 2 1 0.662414 -4.0531 -11.345 0 0 0 
32 2 1 2.85233 2.30795 -10.8852 0 0 0 
33 3 1 5.21002 3.40858 -13.6012 0 0 0 
36 3 1 3.28403 7.67933 -10.8313 0 0 0 
24 3 1 -3.95733 -13.6434 -5.03087 0 0 0 
23 2 1 -3.76679 -10.3048 -3.96706 0 0 0 
59 2 1 -6.4806 -6.09073 -4.69451 0 0 0 
60 3 1 -7.24999 -3.48247 -7.46737 0 0 0 
22 1 1 -2.13 -7.49115 -1.60329 0 0 0 
26 2 1 -2.60947 -7.73223 -8.73263 0 0 0 
25 1 1 -1.38329 -6.27774 -5.09017 0 0 0 
58 1 1 -6.7746 -7.70844 -0.769857 0 0 0 
28 1 1 0.201586 -3.46716 -7.3603 0 0 0 
54 3 1 -6.20297 0.72441 -2.8435 0 0 0 
9 3 1 -0.510155 0.68 -2.21407 0 0 0 
35 2 1 0.450388 6.5962 -8.48647 0 0 0 
31 1 1 1.40389 0.196249 -7.70073 0 0 0 
34 1 1 1.47191 3.57938 -6.1063 0 0 0 
37 1 1 1.55518 6.58413 -3.63779 0 0 0 
2 2 1 5.62605 5.35792 -6.4158 0 0 0 
1 1 1 6.67798 8.54068 -5.49754 0 0 0 
3 3 1 6.23901 1.57395 -5.7939 0 0 0 
4 1 1 6.11586 6.72579 -2.09643 0 0 0 
8 2 1 2.66968 1.51569 -1.21159 0 0 0 
38 2 1 2.13731 10.6362 -3.69173 0 0 0 
39 3 1 4.43941 13.2791 -4.3436 0 0 0 
21 3 1 -4.98788 -13.6828 2.3227 0 0 0 
57 3 1 -9.65995 -10.3816 6.38377 0 0 0 
20 2 1 -4.15006 -10.1022 2.12467 0 0 0 
53 2 1 -5.74865 -1.25936 0.14887 0 0 0 
56 2 1 -8.77688 -8.39346 3.62421 0 0 0 
55 1 1 -6.29605 -5.55597 2.44537 0 0 0 
17 2 1 -2.64033 -6.32014 7.09501 0 0 0 
19 1 1 -1.75902 -6.6811 2.10933 0 0 0 
16 1 1 -0.223065 -4.2016 4.66882 0 0 0 
52 1 1 -4.80177 -2.42272 4.03078 0 0 0 
50 2 1 -4.75825 -1.95498 8.77233 0 0 0 
18 3 1 -5.45841 -7.43083 9.40444 0 0 0 
13 1 1 2.12646 -1.04511 5.26111 0 0 0 
14 2 1 1.62123 -2.08496 8.60647 0 0 0 
49 1 1 -2.73121 0.162746 6.04039 0 0 0 
46 1 1 -0.212643 3.05901 5.71605 0 0 0 
47 2 1 -0.23765 2.35619 9.75428 0 0 0 
40 1 1 1.55129 7.52029 0.113158 0 0 0 
7 1 1 5.27781 4.01449 0.500039 0 0 0 
5 2 1 5.92717 8.52014 1.57841 0 0 0 
44 2 1 3.27826 6.68944 6.65147 0 0 0 
43 1 1 1.30702 5.87563 3.55829 0 0 0 
10 1 1 4.27851 1.84731 3.60738 0 0 0 
11 2 1 5.66463 1.65583 7.41247 0 0 0 
45 3 1 5.96537 7.26368 8.83497 0 0 0 
41 2 1 1.27255 10.5687 2.61151 0 0 0 
6 3 1 7.32874 10.2415 4.37263 0 0 0 
42 3 1 3.71416 13.3625 3.15951 0 0 0 
51 3 1 -5.85554 -2.65121 12.2466 0 0 0 
15 3 1 1.01738 -2.34638 12.0638 0 0 0 
48 3 1 1.30724 2.26289 13.2286 0 0 0 
12 3 1 6.93565 2.29379 10.7384 0 0 0 
