ITEM: TIMESTEP
0
ITEM: NUMBER OF ATOMS
66
ITEM: BOX BOUNDS pp pp pp
-126.092 126.092
-126.092 126.092
-126.092 126.092
ITEM: ATOMS id type mol x y z ix iy iz 
1 1 1 -6.20169 -7.24647 -37.4604 0 0 0 
2 2 1 -9.59121 -7.30495 -35.5891 0 0 0 
3 3 1 -13.0373 -8.01088 -34.3468 0 0 0 
4 1 1 -5.61616 -6.51131 -33.942 0 0 0 
8 2 1 -8.42014 -5.83463 -28.5523 0 0 0 
9 3 1 -11.8662 -6.54055 -27.31 0 0 0 
5 2 1 -2.08869 -7.45049 -34.8397 0 0 0 
6 3 1 1.49853 -8.42135 -34.0145 0 0 0 
7 1 1 -5.03063 -5.77614 -30.4236 0 0 0 
11 2 1 -0.91763 -5.98017 -27.8029 0 0 0 
12 3 1 2.66959 -6.95103 -26.9778 0 0 0 
10 1 1 -4.4451 -5.04098 -26.9052 0 0 0 
15 3 1 -10.6951 -5.07022 -20.2732 0 0 0 
18 3 1 3.84065 -5.4807 -19.9409 0 0 0 
14 2 1 -7.24908 -4.3643 -21.5155 0 0 0 
13 1 1 -3.85956 -4.30582 -23.3868 0 0 0 
16 1 1 -3.27403 -3.57065 -19.8684 0 0 0 
17 2 1 0.253431 -4.50984 -20.7661 0 0 0 
19 1 1 -2.6885 -2.83549 -16.35 0 0 0 
20 2 1 -6.07802 -2.89397 -14.4787 0 0 0 
21 3 1 -9.52409 -3.5999 -13.2364 0 0 0 
27 3 1 -8.35303 -2.12957 -6.19964 0 0 0 
22 1 1 -2.10297 -2.10033 -12.8316 0 0 0 
23 2 1 1.42449 -3.03951 -13.7293 0 0 0 
24 3 1 5.01171 -4.01037 -12.9041 0 0 0 
25 1 1 -1.51744 -1.36516 -9.31319 0 0 0 
26 2 1 -4.90696 -1.42365 -7.44193 0 0 0 
28 1 1 -0.931911 -0.629998 -5.79479 0 0 0 
29 2 1 2.59555 -1.56918 -6.69249 0 0 0 
30 3 1 6.18277 -2.54004 -5.86735 0 0 0 
33 3 1 -7.18197 -0.659241 0.837158 0 0 0 
31 1 1 -0.34638 0.105164 -2.27638 0 0 0 
32 2 1 -3.7359 0.046681 -0.405124 0 0 0 
34 1 1 0.23915 0.840328 1.24202 0 0 0 
35 2 1 3.76661 -0.098857 0.344313 0 0 0 
37 1 1 0.82468 1.57549 4.76042 0 0 0 
36 3 1 7.35383 -1.06972 1.16945 0 0 0 
39 3 1 -6.01091 0.811085 7.87396 0 0 0 
38 2 1 -2.56484 1.51701 6.63168 0 0 0 
40 1 1 1.41021 2.31066 8.27882 0 0 0 
41 2 1 4.93768 1.37147 7.38111 0 0 0 
43 1 1 1.99574 3.04582 11.7972 0 0 0 
44 2 1 -1.39377 2.98733 13.6685 0 0 0 
45 3 1 -4.83985 2.28141 14.9108 0 0 0 
42 3 1 8.52489 0.400609 8.20626 0 0 0 
47 2 1 6.10874 2.8418 14.4179 0 0 0 
46 1 1 2.58127 3.78098 15.3156 0 0 0 
49 1 1 3.1668 4.51615 18.834 0 0 0 
50 2 1 -0.222713 4.45766 20.7053 0 0 0 
51 3 1 -3.66878 3.75174 21.9476 0 0 0 
48 3 1 9.69595 1.87094 15.2431 0 0 0 
53 2 1 7.2798 4.31212 21.4547 0 0 0 
54 3 1 10.867 3.34126 22.2798 0 0 0 
52 1 1 3.75233 5.25131 22.3524 0 0 0 
60 3 1 12.0381 4.81159 29.3167 0 0 0 
55 1 1 4.33786 5.98647 25.8708 0 0 0 
56 2 1 0.948347 5.92799 27.7421 0 0 0 
57 3 1 -2.49772 5.22207 28.9844 0 0 0 
58 1 1 4.9234 6.72164 29.3892 0 0 0 
62 2 1 2.11941 7.39832 34.7789 0 0 0 
59 2 1 8.45086 5.78245 28.4915 0 0 0 
61 1 1 5.50893 7.4568 32.9076 0 0 0 
63 3 1 -1.32666 6.69239 36.0212 0 0 0 
64 1 1 6.09446 8.19196 36.426 0 0 0 
65 2 1 9.62192 7.25278 35.5283 0 0 0 
66 3 1 13.2091 6.28192 36.3535 0 0 0 
ITEM: TIMESTEP
100000
ITEM: NUMBER OF ATOMS
66
ITEM: BOX BOUNDS pp pp pp
-126.092 126.092
-126.092 126.092
-126.092 126.092
ITEM: ATOMS id type mol x y z ix iy iz 
1 1 1 -17.3589 -9.31354 -33.6433 0 0 0 
2 2 1 -18.1423 -5.86263 -31.5282 0 0 0 
9 3 1 -5.14765 -10.5518 -26.3119 0 0 0 
7 1 1 -12.3427 -8.78183 -27.7588 0 0 0 
8 2 1 -8.44276 -9.07319 -27.4634 0 0 0 
4 1 1 -14.6983 -9.03856 -30.8744 0 0 0 
3 3 1 -19.7509 -4.03183 -28.9757 0 0 0 
10 1 1 -10.8922 -8.17974 -24.2702 0 0 0 
5 2 1 -11.8014 -11.8009 -30.9678 0 0 0 
6 3 1 -11.8197 -15.05 -29.2008 0 0 0 
13 1 1 -8.6184 -7.95142 -21.0845 0 0 0 
16 1 1 -6.35697 -6.71721 -18.1569 0 0 0 
15 3 1 -2.82699 -12.7611 -21.6564 0 0 0 
14 2 1 -5.73174 -10.8718 -20.9497 0 0 0 
17 2 1 -4.65412 -9.30262 -15.9411 0 0 0 
18 3 1 -4.4179 -11.5567 -13.1227 0 0 0 
11 2 1 -13.7335 -7.86702 -21.3606 0 0 0 
12 3 1 -17.2642 -8.91184 -20.4708 0 0 0 
19 1 1 -4.68863 -4.47876 -15.5442 0 0 0 
20 2 1 -3.74961 -6.40245 -12.0076 0 0 0 
22 1 1 -3.5139 -1.67405 -12.8723 0 0 0 
25 1 1 -1.85507 -0.486519 -9.58395 0 0 0 
21 3 1 -4.53543 -7.25115 -8.29479 0 0 0 
23 2 1 -3.0953 2.08429 -12.7484 0 0 0 
24 3 1 -4.29664 4.89523 -11.0747 0 0 0 
26 2 1 0.257173 2.91685 -9.10084 0 0 0 
29 2 1 -2.74324 -3.13365 -2.94079 0 0 0 
30 3 1 -3.28098 -6.42909 -1.36418 0 0 0 
28 1 1 -0.94511 -0.713254 -5.70683 0 0 0 
27 3 1 1.07465 6.21004 -10.4034 0 0 0 
33 3 1 3.38106 5.29472 0.987267 0 0 0 
32 2 1 3.25017 2.06136 -0.62485 0 0 0 
31 1 1 0.551099 -0.511189 -2.074 0 0 0 
34 1 1 1.01974 -1.9239 1.54866 0 0 0 
35 2 1 -1.32908 -4.38591 3.34254 0 0 0 
36 3 1 -3.41317 -7.45495 4.52786 0 0 0 
37 1 1 2.47629 -2.02649 5.10439 0 0 0 
38 2 1 4.76741 -5.17077 6.3357 0 0 0 
40 1 1 3.24328 -1.12827 8.82061 0 0 0 
43 1 1 4.84312 -0.227857 12.2275 0 0 0 
39 3 1 6.56968 -8.58516 5.70509 0 0 0 
41 2 1 0.585087 1.31223 10.5199 0 0 0 
44 2 1 7.35636 -2.97137 14.033 0 0 0 
42 3 1 -2.46825 3.53792 11.1377 0 0 0 
45 3 1 8.7082 -6.21971 14.693 0 0 0 
46 1 1 5.68333 1.7036 15.5197 0 0 0 
47 2 1 3.44535 4.05048 18.0098 0 0 0 
48 3 1 0.306332 5.12929 19.8748 0 0 0 
51 3 1 14.6512 -0.687544 17.804 0 0 0 
50 2 1 11.7828 1.43096 18.4383 0 0 0 
54 3 1 14.6235 1.31611 23.9289 0 0 0 
49 1 1 8.10869 2.75418 18.3045 0 0 0 
53 2 1 12.6082 4.26848 23.3148 0 0 0 
52 1 1 9.68287 4.86645 21.0958 0 0 0 
55 1 1 9.848 8.29644 22.7514 0 0 0 
58 1 1 9.20008 12.0354 23.4245 0 0 0 
66 3 1 13.7799 19.5589 33.5556 0 0 0 
65 2 1 12.2451 19.4329 30.3635 0 0 0 
56 2 1 12.1532 10.194 25.5602 0 0 0 
59 2 1 6.26299 13.8757 21.1806 0 0 0 
57 3 1 14.7871 11.6714 27.4315 0 0 0 
60 3 1 5.25194 16.3684 18.6299 0 0 0 
61 1 1 9.03429 15.6453 24.8545 0 0 0 
63 3 1 3.27021 20.6238 22.3399 0 0 0 
62 2 1 6.47017 18.7017 23.6619 0 0 0 
64 1 1 9.73821 18.6373 27.3852 0 0 0 
ITEM: TIMESTEP
200000
ITEM: NUMBER OF ATOMS
66
ITEM: BOX BOUNDS pp pp pp
-126.092 126.092
-126.092 126.092
-126.092 126.092
ITEM: ATOMS id type mol x y z ix iy iz 
1 1 1 -13.4608 -22.2845 -29.3744 0 0 0 
4 1 1 -12.4435 -19.3881 -27.0233 0 0 0 
2 2 1 -16.5643 -21.939 -27.0151 0 0 0 
3 3 1 -19.5239 -21.0734 -25.4652 0 0 0 
6 3 1 -7.45245 -17.1276 -31.3778 0 0 0 
5 2 1 -10.0325 -16.6456 -28.6154 0 0 0 
7 1 1 -11.5607 -16.9161 -24.0387 0 0 0 
10 1 1 -11.2346 -14.1414 -21.2713 0 0 0 
8 2 1 -7.51978 -16.2483 -23.3525 0 0 0 
9 3 1 -4.94212 -14.9935 -21.389 0 0 0 
11 2 1 -13.1586 -10.7467 -20.6026 0 0 0 
12 3 1 -15.5582 -7.89799 -21.1534 0 0 0 
13 1 1 -9.38082 -13.2124 -18.0523 0 0 0 
16 1 1 -8.40038 -10.8889 -15.1042 0 0 0 
17 2 1 -8.47187 -6.7848 -14.7637 0 0 0 
18 3 1 -6.60166 -3.5206 -15.1326 0 0 0 
24 3 1 -2.32234 -1.56719 -11.6205 0 0 0 
14 2 1 -6.27707 -15.0125 -16.0285 0 0 0 
15 3 1 -5.48282 -17.3672 -13.2334 0 0 0 
19 1 1 -6.65846 -10.1625 -11.6574 0 0 0 
22 1 1 -4.45149 -8.44963 -8.92136 0 0 0 
20 2 1 -5.93581 -12.9822 -8.64271 0 0 0 
21 3 1 -4.50704 -11.7995 -5.62509 0 0 0 
26 2 1 -2.08981 -8.20361 -1.95577 0 0 0 
25 1 1 -2.46081 -7.00778 -5.86403 0 0 0 
27 3 1 -4.09319 -9.17495 0.842566 0 0 0 
23 2 1 -2.71179 -4.96901 -10.1738 0 0 0 
28 1 1 0.11311 -4.50326 -4.59501 0 0 0 
29 2 1 2.82181 -2.77021 -7.16615 0 0 0 
30 3 1 5.29686 -0.187898 -8.00839 0 0 0 
31 1 1 2.16511 -2.00431 -2.5876 0 0 0 
34 1 1 4.50843 0.043621 -0.206538 0 0 0 
37 1 1 7.16017 1.2761 2.27497 0 0 0 
35 2 1 3.18814 3.33057 1.4023 0 0 0 
32 2 1 -0.37569 0.327037 -0.597238 0 0 0 
33 3 1 -2.53557 0.789528 2.10735 0 0 0 
38 2 1 11.1717 1.44287 2.44908 0 0 0 
39 3 1 13.5381 4.03927 1.98393 0 0 0 
36 3 1 0.609935 5.08133 3.50892 0 0 0 
40 1 1 8.11466 3.45987 5.39733 0 0 0 
44 2 1 2.94277 5.94888 9.77488 0 0 0 
45 3 1 -0.0661434 4.50098 11.6711 0 0 0 
43 1 1 6.64471 5.91156 8.15429 0 0 0 
46 1 1 5.89752 8.9246 10.2652 0 0 0 
47 2 1 7.18707 12.7595 9.32837 0 0 0 
49 1 1 4.92565 10.2698 13.6673 0 0 0 
42 3 1 14.9488 3.44939 9.19476 0 0 0 
41 2 1 11.6714 4.30429 7.39514 0 0 0 
48 3 1 9.46173 15.6286 8.16916 0 0 0 
51 3 1 0.633892 5.92147 17.7458 0 0 0 
50 2 1 1.91292 8.71097 16.0038 0 0 0 
53 2 1 2.14929 10.7472 19.8297 0 0 0 
52 1 1 4.65572 12.2115 16.9777 0 0 0 
55 1 1 5.83092 14.6512 19.8187 0 0 0 
54 3 1 0.96922 8.63162 22.3107 0 0 0 
57 3 1 1.47243 15.8406 25.9868 0 0 0 
56 2 1 3.32307 15.8465 22.9898 0 0 0 
58 1 1 7.53463 16.9402 22.2399 0 0 0 
63 3 1 4.15564 16.7246 30.7578 0 0 0 
59 2 1 10.0459 19.3691 20.3328 0 0 0 
65 2 1 13.557 21.963 27.2345 0 0 0 
61 1 1 8.25362 18.7993 25.4529 0 0 0 
64 1 1 9.76249 21.1787 28.0406 0 0 0 
62 2 1 6.21272 18.7615 28.8582 0 0 0 
60 3 1 11.2568 21.7685 17.7626 0 0 0 
66 3 1 16.2095 24.0812 25.3224 0 0 0 
ITEM: TIMESTEP
300000
ITEM: NUMBER OF ATOMS
66
ITEM: BOX BOUNDS pp pp pp
-126.092 126.092
-126.092 126.092
-126.092 126.092
ITEM: ATOMS id type mol x y z ix iy iz 
3 3 1 -13.3453 -33.3952 -14.8689 0 0 0 
1 1 1 -9.71568 -32.4458 -21.1364 0 0 0 
5 2 1 -7.44736 -26.1253 -20.195 0 0 0 
4 1 1 -9.56132 -28.938 -19.1732 0 0 0 
2 2 1 -11.8093 -33.1933 -18.1804 0 0 0 
7 1 1 -9.19047 -26.2613 -16.4455 0 0 0 
6 3 1 -4.28304 -24.1635 -19.4047 0 0 0 
11 2 1 -4.03423 -21.8017 -14.389 0 0 0 
10 1 1 -7.93021 -23.2924 -14.2421 0 0 0 
12 3 1 -1.19157 -19.6406 -15.7562 0 0 0 
18 3 1 -0.416671 -14.1866 -10.6571 0 0 0 
9 3 1 -14.5906 -26.3087 -11.5791 0 0 0 
8 2 1 -12.1518 -25.7751 -13.9231 0 0 0 
13 1 1 -7.83104 -20.3585 -11.8689 0 0 0 
14 2 1 -11.3963 -18.7652 -10.5398 0 0 0 
16 1 1 -6.36308 -17.2426 -9.92383 0 0 0 
15 3 1 -13.7383 -18.3752 -13.2345 0 0 0 
17 2 1 -2.89733 -16.7975 -10.3723 0 0 0 
20 2 1 -4.68411 -11.3158 -9.06277 0 0 0 
19 1 1 -5.16067 -14.3568 -7.47802 0 0 0 
22 1 1 -4.12578 -12.1495 -4.46843 0 0 0 
21 3 1 -5.51504 -8.34483 -10.9495 0 0 0 
27 3 1 -2.42089 -4.3629 -9.39006 0 0 0 
24 3 1 -4.56181 -12.492 2.92175 0 0 0 
23 2 1 -3.48977 -12.6214 -0.703767 0 0 0 
25 1 1 -3.52167 -8.34 -3.4038 0 0 0 
26 2 1 -3.76227 -6.1834 -6.34609 0 0 0 
28 1 1 -2.2523 -4.86067 -2.57535 0 0 0 
29 2 1 -0.961031 -3.64704 1.01527 0 0 0 
32 2 1 -2.90349 0.691829 -6.26304 0 0 0 
31 1 1 -1.13006 -1.19407 -3.11315 0 0 0 
34 1 1 0.0443059 2.51384 -3.02134 0 0 0 
37 1 1 1.61782 5.24794 -0.789654 0 0 0 
35 2 1 0.227225 5.11563 -5.48207 0 0 0 
33 3 1 -5.54036 1.86387 -8.76878 0 0 0 
36 3 1 -0.813552 7.95892 -7.61308 0 0 0 
38 2 1 -0.475176 5.28307 2.74285 0 0 0 
40 1 1 3.12878 8.35883 1.02489 0 0 0 
43 1 1 4.05016 10.9918 3.82549 0 0 0 
42 3 1 8.56726 12.7554 -2.60419 0 0 0 
41 2 1 6.0885 11.0033 -0.284933 0 0 0 
44 2 1 5.84832 14.3911 3.42473 0 0 0 
45 3 1 8.94954 16.0151 3.6895 0 0 0 
30 3 1 -1.13921 -2.56705 4.61075 0 0 0 
39 3 1 -0.49448 5.75768 6.15608 0 0 0 
47 2 1 1.36718 12.7169 9.75551 0 0 0 
46 1 1 4.22883 12.5008 7.45797 0 0 0 
48 3 1 -1.14668 11.1481 11.8559 0 0 0 
49 1 1 5.43444 14.344 10.3879 0 0 0 
50 2 1 9.16268 14.1847 12.0803 0 0 0 
52 1 1 5.21468 17.3548 12.9343 0 0 0 
51 3 1 11.7613 12.1604 13.9976 0 0 0 
56 2 1 10.7103 21.6604 13.1811 0 0 0 
57 3 1 10.6654 25.3684 13.4207 0 0 0 
55 1 1 7.00474 20.4514 14.4365 0 0 0 
54 3 1 1.32848 16.0509 19.0295 0 0 0 
60 3 1 4.74662 27.7639 20.7774 0 0 0 
59 2 1 5.94822 24.8593 19.2056 0 0 0 
53 2 1 2.60222 17.7104 16.0277 0 0 0 
58 1 1 8.60429 23.1651 16.671 0 0 0 
63 3 1 9.93218 32.5627 18.5394 0 0 0 
62 2 1 9.94351 29.0705 19.2974 0 0 0 
61 1 1 10.5847 25.6008 18.7723 0 0 0 
64 1 1 13.3405 27.4859 20.6254 0 0 0 
65 2 1 15.738 26.719 23.9234 0 0 0 
66 3 1 18.3042 27.7506 26.6868 0 0 0 
ITEM: TIMESTEP
400000
ITEM: NUMBER OF ATOMS
66
ITEM: BOX BOUNDS pp pp pp
-126.092 126.092
-126.092 126.092
-126.092 126.092
ITEM: ATOMS id type mol x y z ix iy iz 
6 3 1 -5.69427 -33.9565 -10.9328 0 0 0 
5 2 1 -8.25246 -32.1863 -12.8716 0 0 0 
1 1 1 -14.3592 -33.3086 -16.0147 0 0 0 
4 1 1 -11.8156 -30.9232 -14.3845 0 0 0 
9 3 1 -3.75959 -25.4103 -12.8362 0 0 0 
8 2 1 -7.03119 -26.4173 -13.7496 0 0 0 
3 3 1 -18.7526 -28.4118 -16.5263 0 0 0 
2 2 1 -17.2477 -30.8191 -14.3992 0 0 0 
7 1 1 -10.8498 -27.3976 -12.8384 0 0 0 
10 1 1 -10.7547 -23.8505 -11.3096 0 0 0 
14 2 1 -5.65756 -20.7416 -12.5739 0 0 0 
13 1 1 -9.1524 -20.4869 -10.9075 0 0 0 
16 1 1 -7.71052 -17.0213 -9.87504 0 0 0 
12 3 1 -15.4494 -19.8647 -6.61946 0 0 0 
11 2 1 -13.1555 -21.8756 -8.57028 0 0 0 
21 3 1 -0.947548 -11.0483 -15.0032 0 0 0 
17 2 1 -9.50149 -13.5809 -8.47957 0 0 0 
18 3 1 -9.82092 -12.2374 -4.97145 0 0 0 
20 2 1 -2.46673 -12.727 -12.2026 0 0 0 
19 1 1 -5.26101 -14.0718 -9.60481 0 0 0 
22 1 1 -3.57891 -10.9589 -8.10372 0 0 0 
23 2 1 -5.33393 -8.09804 -5.72682 0 0 0 
30 3 1 8.2164 -4.12208 -2.06739 0 0 0 
15 3 1 -3.12081 -18.8703 -13.9889 0 0 0 
24 3 1 -6.79077 -5.00015 -4.34561 0 0 0 
25 1 1 -0.805368 -8.51442 -6.89817 0 0 0 
26 2 1 2.61394 -10.2811 -5.66647 0 0 0 
28 1 1 1.36317 -5.73068 -5.20556 0 0 0 
27 3 1 4.74125 -12.3205 -3.59366 0 0 0 
29 2 1 5.15455 -4.72102 -4.29249 0 0 0 
33 3 1 -3.62295 -1.14119 -3.79779 0 0 0 
32 2 1 -1.16194 -1.04332 -1.24745 0 0 0 
31 1 1 1.93331 -2.50995 -3.06233 0 0 0 
38 2 1 1.625 4.33847 4.62922 0 0 0 
34 1 1 3.2303 0.683816 -1.07115 0 0 0 
37 1 1 4.00628 3.46524 1.56096 0 0 0 
35 2 1 6.70327 2.48508 -2.04613 0 0 0 
36 3 1 9.65738 2.11951 0.472242 0 0 0 
39 3 1 1.23554 6.4907 7.39892 0 0 0 
48 3 1 -2.48242 14.9572 8.64564 0 0 0 
40 1 1 5.60077 6.83586 2.86645 0 0 0 
41 2 1 8.90487 9.01478 2.37214 0 0 0 
43 1 1 5.69177 9.89624 5.05893 0 0 0 
44 2 1 8.55956 12.8123 5.79651 0 0 0 
42 3 1 11.4346 11.166 1.40673 0 0 0 
45 3 1 11.8863 13.7833 6.51577 0 0 0 
47 2 1 1.12373 13.7868 9.51372 0 0 0 
46 1 1 4.65912 12.6295 7.82897 0 0 0 
58 1 1 5.75648 25.9452 13.8826 0 0 0 
55 1 1 6.60987 22.289 13.2172 0 0 0 
51 3 1 11.5805 12.9683 13.8402 0 0 0 
49 1 1 5.93874 15.4389 10.2169 0 0 0 
50 2 1 9.48783 14.8956 11.363 0 0 0 
52 1 1 6.81003 18.6424 12.0304 0 0 0 
53 2 1 10.1638 18.9468 14.1533 0 0 0 
56 2 1 9.26508 23.6412 15.7301 0 0 0 
54 3 1 12.8073 17.8619 16.104 0 0 0 
57 3 1 11.526 23.3281 18.5291 0 0 0 
66 3 1 -3.59035 29.8859 19.0134 0 0 0 
65 2 1 -0.901889 31.9632 17.2832 0 0 0 
61 1 1 4.04582 29.3921 13.5645 0 0 0 
59 2 1 8.47639 28.0248 16.1735 0 0 0 
64 1 1 1.5069 32.1151 14.3678 0 0 0 
62 2 1 5.08748 32.033 10.8236 0 0 0 
63 3 1 5.65944 33.3788 7.47773 0 0 0 
60 3 1 11.2399 30.0462 17.0445 0 0 0 
ITEM: TIMESTEP
500000
ITEM: NUMBER OF ATOMS
66
ITEM: BOX BOUNDS pp pp pp
-126.092 126.092
-126.092 126.092
-126.092 126.092
ITEM: ATOMS id type mol x y z ix iy iz 
6 3 1 -6.77505 -22.8358 -16.3462 0 0 0 
1 1 1 -16.464 -19.1337 -14.897 0 0 0 
2 2 1 -16.0216 -16.2497 -12.1053 0 0 0 
7 1 1 -10.6243 -19.7307 -10.1111 0 0 0 
4 1 1 -13.0152 -19.7274 -13.2143 0 0 0 
8 2 1 -11.9173 -18.1122 -6.76776 0 0 0 
5 2 1 -9.45253 -20.5365 -14.8512 0 0 0 
10 1 1 -7.40042 -19.7862 -7.79151 0 0 0 
11 2 1 -7.39858 -16.5703 -5.3054 0 0 0 
13 1 1 -3.84361 -19.851 -6.15749 0 0 0 
14 2 1 -1.99157 -23.4309 -5.3864 0 0 0 
21 3 1 8.46042 -19.166 -5.62755 0 0 0 
3 3 1 -16.4397 -12.7075 -11.618 0 0 0 
15 3 1 -1.60069 -27.0483 -3.80384 0 0 0 
9 3 1 -12.1405 -16.0245 -3.37288 0 0 0 
16 1 1 -0.561044 -19.3249 -4.09546 0 0 0 
19 1 1 3.05246 -18.6354 -2.78584 0 0 0 
17 2 1 -1.16391 -16.1892 -1.46898 0 0 0 
20 2 1 6.32601 -21.0497 -3.56138 0 0 0 
23 2 1 9.30245 -17.4115 0.126986 0 0 0 
24 3 1 12.3352 -19.3677 1.2125 0 0 0 
22 1 1 5.66218 -16.2276 -1.36301 0 0 0 
12 3 1 -7.06908 -14.7562 -2.35642 0 0 0 
18 3 1 -2.56956 -13.6065 0.811758 0 0 0 
27 3 1 2.88042 -7.13139 -2.99165 0 0 0 
26 2 1 5.30182 -9.91186 -2.29644 0 0 0 
25 1 1 7.40864 -12.8237 -0.502347 0 0 0 
28 1 1 8.66076 -9.50861 0.970485 0 0 0 
29 2 1 12.6247 -9.25032 1.59018 0 0 0 
31 1 1 9.26493 -5.92817 2.30943 0 0 0 
30 3 1 15.7486 -7.50852 2.30595 0 0 0 
42 3 1 1.76431 4.81851 -4.52357 0 0 0 
34 1 1 9.16521 -2.00764 2.6877 0 0 0 
37 1 1 7.79854 1.5746 2.63877 0 0 0 
40 1 1 5.68599 4.74396 2.0585 0 0 0 
43 1 1 4.14419 8.09116 2.70687 0 0 0 
44 2 1 0.158917 8.40744 1.66471 0 0 0 
41 2 1 3.5093 5.2967 -1.36319 0 0 0 
45 3 1 -1.68833 10.4777 -0.989475 0 0 0 
46 1 1 2.89006 11.5294 4.01675 0 0 0 
49 1 1 1.02026 14.9625 4.93752 0 0 0 
60 3 1 -3.69186 24.4794 -2.85106 0 0 0 
66 3 1 -12.9843 32.2822 3.4045 0 0 0 
65 2 1 -9.46901 32.2841 2.73886 0 0 0 
64 1 1 -5.77034 32.9818 4.17204 0 0 0 
58 1 1 -2.77398 25.7921 4.45266 0 0 0 
59 2 1 -3.62461 26.2933 0.594892 0 0 0 
61 1 1 -4.04478 29.5693 4.49735 0 0 0 
32 2 1 12.0039 -5.44866 5.38654 0 0 0 
35 2 1 11.7583 -0.0602546 5.31824 0 0 0 
36 3 1 12.7271 2.48823 8.06781 0 0 0 
33 3 1 13.5766 -4.4261 8.70563 0 0 0 
38 2 1 8.19711 3.29658 6.22616 0 0 0 
51 3 1 -5.47258 11.9773 6.75228 0 0 0 
50 2 1 -2.84937 14.0912 5.0646 0 0 0 
39 3 1 9.97387 6.15701 8.21006 0 0 0 
47 2 1 5.26507 14.2797 5.80054 0 0 0 
57 3 1 -7.08031 24.142 10.1295 0 0 0 
53 2 1 -2.94471 18.7321 8.54522 0 0 0 
56 2 1 -3.43541 23.5814 8.71905 0 0 0 
54 3 1 -4.97371 17.7774 11.5304 0 0 0 
52 1 1 -0.737351 18.2876 5.19181 0 0 0 
55 1 1 -2.03397 21.9849 5.19156 0 0 0 
48 3 1 7.14197 16.3854 8.44131 0 0 0 
63 3 1 0.402559 34.4768 8.21926 0 0 0 
62 2 1 -1.91543 31.9572 6.54256 0 0 0 
ITEM: TIMESTEP
600000
ITEM: NUMBER OF ATOMS
66
ITEM: BOX BOUNDS pp pp pp
-126.092 126.092
-126.092 126.092
-126.092 126.092
ITEM: ATOMS id type mol x y z ix iy iz 
21 3 1 3.54343 -10.987 -12.2285 0 0 0 
24 3 1 -1.57765 -6.10273 -13.5779 0 0 0 
9 3 1 -14.3987 -28.3358 -6.62788 0 0 0 
16 1 1 -2.70715 -18.4951 -8.8005 0 0 0 
14 2 1 -0.707096 -23.077 -8.91465 0 0 0 
19 1 1 -2.44371 -14.6767 -8.97606 0 0 0 
15 3 1 1.97952 -23.138 -11.7075 0 0 0 
17 2 1 -0.256477 -17.9063 -11.9001 0 0 0 
18 3 1 2.3935 -17.0621 -14.024 0 0 0 
20 2 1 0.108709 -12.5776 -11.36 0 0 0 
22 1 1 -2.74315 -10.9584 -8.50251 0 0 0 
23 2 1 -2.64059 -8.82056 -11.7157 0 0 0 
25 1 1 -3.17787 -7.41801 -6.89911 0 0 0 
27 3 1 -1.28351 -1.20505 -10.7259 0 0 0 
26 2 1 -2.60829 -3.81932 -8.7934 0 0 0 
30 3 1 -2.38107 2.60878 -4.85657 0 0 0 
29 2 1 -3.43319 -0.699357 -5.13326 0 0 0 
28 1 1 -3.42416 -4.66538 -4.25227 0 0 0 
32 2 1 -5.24166 1.35178 -0.719513 0 0 0 
31 1 1 -3.57492 -2.22095 -1.43745 0 0 0 
33 3 1 -6.69993 3.20063 1.77801 0 0 0 
3 3 1 -10.1165 -30.8855 -3.26734 0 0 0 
8 2 1 -11.4439 -26.7025 -5.56214 0 0 0 
7 1 1 -9.18151 -25.1011 -2.54242 0 0 0 
2 2 1 -12.19 -29.7613 -0.769255 0 0 0 
4 1 1 -11.1781 -25.6634 0.664753 0 0 0 
1 1 1 -13.9995 -27.6504 2.44427 0 0 0 
10 1 1 -6.79449 -24.0323 -5.44101 0 0 0 
13 1 1 -4.26335 -21.8293 -7.34235 0 0 0 
12 3 1 -6.20769 -28.4995 -11.5318 0 0 0 
11 2 1 -6.49924 -25.6672 -9.04387 0 0 0 
34 1 1 -2.54039 -1.17732 2.05885 0 0 0 
35 2 1 -1.66029 -2.97717 5.61493 0 0 0 
37 1 1 -1.10153 1.25763 4.68949 0 0 0 
36 3 1 -2.23501 -4.57878 9.09612 0 0 0 
39 3 1 -0.330208 -0.699155 11.8935 0 0 0 
38 2 1 0.0165949 0.746669 8.61852 0 0 0 
45 3 1 -2.19807 12.6865 -0.777602 0 0 0 
40 1 1 0.317631 4.76306 5.46975 0 0 0 
43 1 1 0.958061 8.6177 4.81294 0 0 0 
46 1 1 2.89865 12.0219 4.96187 0 0 0 
44 2 1 -0.839812 10.9884 2.45673 0 0 0 
41 2 1 3.41861 5.09036 7.91218 0 0 0 
42 3 1 3.96293 6.02573 11.3243 0 0 0 
48 3 1 -1.58237 15.7963 5.68842 0 0 0 
47 2 1 1.34821 14.9198 3.37902 0 0 0 
5 2 1 -9.51912 -22.1941 2.19771 0 0 0 
6 3 1 -10.1958 -19.0102 4.1092 0 0 0 
50 2 1 7.21841 15.7674 9.48263 0 0 0 
49 1 1 5.01255 15.107 6.00354 0 0 0 
51 3 1 6.0766 17.1077 12.7623 0 0 0 
54 3 1 3.18306 24.2909 8.16101 0 0 0 
53 2 1 5.15126 21.4447 8.12632 0 0 0 
56 2 1 8.8868 22.9809 0.79497 0 0 0 
52 1 1 6.35777 18.7049 5.45638 0 0 0 
55 1 1 8.52838 21.6674 4.25433 0 0 0 
57 3 1 8.78152 20.8816 -2.3316 0 0 0 
61 1 1 11.5978 28.5558 5.0601 0 0 0 
58 1 1 10.1586 24.9001 4.95186 0 0 0 
59 2 1 10.506 25.8165 8.95144 0 0 0 
62 2 1 13.3138 30.716 2.01586 0 0 0 
64 1 1 12.1982 32.112 6.45488 0 0 0 
63 3 1 14.1932 34.2651 0.655871 0 0 0 
65 2 1 13.2111 32.4476 9.83378 0 0 0 
60 3 1 12.7688 24.4884 11.3212 0 0 0 
66 3 1 13.463 31.7339 13.4728 0 0 0 
ITEM: TIMESTEP
700000
ITEM: NUMBER OF ATOMS
66
ITEM: BOX BOUNDS pp pp pp
-126.092 126.092
-126.092 126.092
-126.092 126.092
ITEM: ATOMS id type mol x y z ix iy iz 
1 1 1 -15.9299 -26.8284 -15.5315 0 0 0 
3 3 1 -13.2751 -19.9857 -14.857 0 0 0 
2 2 1 -13.5414 -23.5351 -15.0968 0 0 0 
6 3 1 -25.5369 -24.3243 -13.5344 0 0 0 
5 2 1 -21.999 -24.6179 -12.0484 0 0 0 
4 1 1 -17.9805 -24.4538 -13.0316 0 0 0 
7 1 1 -18.9563 -21.4556 -10.675 0 0 0 
10 1 1 -19.567 -18.463 -8.23989 0 0 0 
8 2 1 -15.7956 -20.9764 -8.20448 0 0 0 
9 3 1 -12.0517 -20.7474 -8.21457 0 0 0 
12 3 1 -25.2802 -14.3139 -9.3744 0 0 0 
11 2 1 -23.0904 -16.6112 -7.17526 0 0 0 
16 1 1 -15.3618 -14.0784 -3.41055 0 0 0 
13 1 1 -17.8794 -15.8262 -5.69961 0 0 0 
14 2 1 -19.8275 -12.6747 -4.34313 0 0 0 
15 3 1 -21.8456 -14.8273 -2.08453 0 0 0 
17 2 1 -16.5651 -10.6896 -1.4796 0 0 0 
21 3 1 -9.23694 -18.9082 2.9188 0 0 0 
18 3 1 -18.4037 -7.31866 -1.31098 0 0 0 
20 2 1 -11.1136 -15.9409 1.7534 0 0 0 
19 1 1 -12.3825 -13.3367 -1.13052 0 0 0 
23 2 1 -6.7136 -13.1839 2.98849 0 0 0 
22 1 1 -9.0722 -11.4935 0.0127534 0 0 0 
25 1 1 -6.05698 -8.96242 0.350796 0 0 0 
28 1 1 -3.57752 -6.0785 0.808406 0 0 0 
30 3 1 -3.53081 1.17416 2.65121 0 0 0 
29 2 1 -4.36163 -2.12946 1.03563 0 0 0 
48 3 1 11.8659 8.95932 -4.04376 0 0 0 
41 2 1 5.31667 6.25723 0.137375 0 0 0 
42 3 1 3.68997 8.51092 -2.50754 0 0 0 
47 2 1 10.853 11.0069 -1.1087 0 0 0 
46 1 1 9.8963 10.5186 2.86458 0 0 0 
49 1 1 11.2088 14.0977 2.25503 0 0 0 
45 3 1 12.2101 8.78153 10.275 0 0 0 
51 3 1 18.6581 13.0848 3.36958 0 0 0 
55 1 1 15.0358 20.559 3.18012 0 0 0 
50 2 1 15.2937 14.3253 3.021 0 0 0 
53 2 1 11.7972 20.0753 -0.36745 0 0 0 
54 3 1 10.6521 23.237 -1.78568 0 0 0 
52 1 1 12.7961 17.6028 2.00874 0 0 0 
58 1 1 16.4255 23.9443 4.0953 0 0 0 
61 1 1 17.4805 27.6237 4.7292 0 0 0 
66 3 1 21.3641 34.6262 10.2698 0 0 0 
62 2 1 20.8449 28.7113 6.68251 0 0 0 
65 2 1 18.6707 33.5182 7.6638 0 0 0 
64 1 1 17.5061 31.5094 5.01191 0 0 0 
24 3 1 -4.67588 -15.9661 4.46855 0 0 0 
26 2 1 -2.12445 -10.1979 0.785077 0 0 0 
27 3 1 1.12121 -12.2648 0.649082 0 0 0 
31 1 1 -0.0156277 -5.04664 1.68795 0 0 0 
32 2 1 3.44654 -6.77692 1.35757 0 0 0 
33 3 1 6.84923 -7.78275 1.83172 0 0 0 
36 3 1 3.18883 -3.09147 10.708 0 0 0 
34 1 1 2.2414 -2.27017 3.42509 0 0 0 
38 2 1 2.36122 2.62718 7.7633 0 0 0 
39 3 1 0.0260561 3.23521 10.6012 0 0 0 
40 1 1 5.94239 4.30805 3.62228 0 0 0 
37 1 1 3.65242 1.12636 4.19705 0 0 0 
35 2 1 3.35514 -2.98249 7.24147 0 0 0 
43 1 1 8.4653 7.24172 4.11786 0 0 0 
44 2 1 11.2853 8.0259 6.63805 0 0 0 
59 2 1 19.8202 23.7673 6.34127 0 0 0 
60 3 1 21.9062 23.0135 8.98982 0 0 0 
56 2 1 18.6784 19.2357 4.54685 0 0 0 
57 3 1 21.781 18.0488 4.01673 0 0 0 
63 3 1 24.4508 28.1711 7.92145 0 0 0 
ITEM: TIMESTEP
800000
ITEM: NUMBER OF ATOMS
66
ITEM: BOX BOUNDS pp pp pp
-126.092 126.092
-126.092 126.092
-126.092 126.092
ITEM: ATOMS id type mol x y z ix iy iz 
21 3 1 -13.4084 -9.10089 -6.80378 0 0 0 
27 3 1 -14.6237 -2.37283 -8.94419 0 0 0 
26 2 1 -13.9465 -3.59582 -5.32343 0 0 0 
30 3 1 -17.9623 3.35073 -7.17259 0 0 0 
39 3 1 -4.48492 7.97843 2.64539 0 0 0 
38 2 1 -4.14322 11.0929 0.417433 0 0 0 
54 3 1 15.4691 16.0595 -5.93754 0 0 0 
48 3 1 9.34116 14.5311 -6.97589 0 0 0 
47 2 1 8.47094 12.9801 -4.04517 0 0 0 
53 2 1 13.8217 15.3861 -2.89227 0 0 0 
5 2 1 -2.49309 -20.4535 7.24958 0 0 0 
6 3 1 -2.53516 -16.8229 8.29749 0 0 0 
14 2 1 -10.948 -17.0701 -2.24781 0 0 0 
10 1 1 -7.79898 -21.1742 2.67855 0 0 0 
13 1 1 -9.51722 -17.9731 1.49773 0 0 0 
16 1 1 -10.6445 -14.3627 1.81968 0 0 0 
15 3 1 -10.549 -14.5457 -4.94431 0 0 0 
12 3 1 -8.12464 -22.4657 -5.00904 0 0 0 
11 2 1 -8.59815 -22.0652 -1.31924 0 0 0 
17 2 1 -11.9688 -12.4879 5.17759 0 0 0 
19 1 1 -11.147 -10.9463 0.231159 0 0 0 
20 2 1 -11.32 -9.85063 -3.56128 0 0 0 
22 1 1 -11.8761 -7.14996 0.09968 0 0 0 
23 2 1 -12.7981 -4.7958 3.27726 0 0 0 
18 3 1 -13.3897 -13.1943 8.6287 0 0 0 
24 3 1 -14.1728 -4.62031 6.70394 0 0 0 
29 2 1 -15.407 1.874 -4.62418 0 0 0 
28 1 1 -12.3352 -0.117318 -2.87769 0 0 0 
31 1 1 -10.6597 3.43667 -3.07384 0 0 0 
25 1 1 -12.1013 -3.7415 -1.71105 0 0 0 
34 1 1 -8.29286 6.44481 -2.97952 0 0 0 
33 3 1 -14.1321 10.1158 -3.49309 0 0 0 
32 2 1 -13.1653 6.40135 -2.83532 0 0 0 
36 3 1 -8.91664 11.6367 -7.83832 0 0 0 
37 1 1 -5.07186 8.56503 -2.71688 0 0 0 
35 2 1 -8.41275 8.77772 -5.9835 0 0 0 
40 1 1 -1.66149 9.91152 -3.61486 0 0 0 
41 2 1 -0.547497 9.49538 -7.50557 0 0 0 
42 3 1 -0.734645 10.4776 -11.1658 0 0 0 
43 1 1 2.06054 10.8124 -3.34711 0 0 0 
44 2 1 4.13839 12.2205 -6.5747 0 0 0 
46 1 1 5.62495 11.6215 -1.85808 0 0 0 
45 3 1 3.70366 14.7468 -9.48629 0 0 0 
49 1 1 8.95193 12.0839 0.19423 0 0 0 
51 3 1 8.51965 12.8123 6.63068 0 0 0 
50 2 1 10.0421 10.9741 3.94174 0 0 0 
52 1 1 12.7193 13.1408 0.306545 0 0 0 
57 3 1 20.7621 13.3919 -5.16965 0 0 0 
55 1 1 16.4738 13.8344 0.740094 0 0 0 
56 2 1 18.828 14.7851 -2.45728 0 0 0 
59 2 1 20.7652 13.2977 6.17144 0 0 0 
58 1 1 19.8421 14.2801 2.54153 0 0 0 
61 1 1 23.4825 15.3401 2.82469 0 0 0 
62 2 1 25.1397 15.5998 -0.898025 0 0 0 
63 3 1 25.3359 16.5035 -4.16144 0 0 0 
1 1 1 -3.71169 -26.9539 11.0014 0 0 0 
4 1 1 -4.0104 -24.2458 8.11044 0 0 0 
7 1 1 -6.02089 -23.556 5.1209 0 0 0 
2 2 1 -5.67542 -29.0867 8.20176 0 0 0 
8 2 1 -8.21593 -26.086 2.84908 0 0 0 
9 3 1 -10.3193 -29.2459 2.37814 0 0 0 
64 1 1 27.1146 16.6027 2.599 0 0 0 
60 3 1 22.7991 14.1173 8.84797 0 0 0 
65 2 1 29.5675 16.9902 5.94955 0 0 0 
66 3 1 30.7087 18.9159 9.03314 0 0 0 
3 3 1 -9.02059 -29.9177 7.69719 0 0 0 
ITEM: TIMESTEP
900000
ITEM: NUMBER OF ATOMS
66
ITEM: BOX BOUNDS pp pp pp
-126.092 126.092
-126.092 126.092
-126.092 126.092
ITEM: ATOMS id type mol x y z ix iy iz 
42 3 1 6.12775 5.3101 -11.7857 0 0 0 
36 3 1 5.17677 0.54241 -7.48215 0 0 0 
35 2 1 1.80462 0.130058 -6.19858 0 0 0 
41 2 1 3.95967 5.99518 -8.64531 0 0 0 
40 1 1 5.26034 5.30114 -5.04742 0 0 0 
45 3 1 6.66459 13.3955 -11.4558 0 0 0 
44 2 1 6.7133 10.5769 -9.55161 0 0 0 
43 1 1 7.1142 8.67796 -5.96332 0 0 0 
46 1 1 9.04526 12.037 -5.46004 0 0 0 
49 1 1 10.9377 15.393 -6.13678 0 0 0 
51 3 1 11.3587 17.776 -13.2665 0 0 0 
50 2 1 10.7448 17.4987 -9.53436 0 0 0 
53 2 1 9.68272 21.5617 -4.47835 0 0 0 
54 3 1 8.61807 23.5557 -1.66431 0 0 0 
52 1 1 12.4315 18.7183 -5.00618 0 0 0 
9 3 1 -22.8453 -19.23 8.3121 0 0 0 
2 2 1 -24.7689 -28.5469 8.78352 0 0 0 
3 3 1 -26.4931 -25.4791 8.43893 0 0 0 
20 2 1 -6.22376 -14.2821 5.61732 0 0 0 
21 3 1 -4.00044 -17.2694 4.82745 0 0 0 
18 3 1 -14.7075 -14.6835 -1.97808 0 0 0 
24 3 1 -8.32731 -11.5112 -4.88951 0 0 0 
17 2 1 -13.6813 -15.3575 1.61502 0 0 0 
19 1 1 -9.99342 -14.3472 4.19435 0 0 0 
22 1 1 -8.27305 -11.3237 2.33806 0 0 0 
23 2 1 -8.86713 -10.4516 -1.36226 0 0 0 
25 1 1 -6.48106 -7.99185 1.26255 0 0 0 
26 2 1 -6.29785 -4.14834 2.63492 0 0 0 
28 1 1 -3.90581 -5.87816 -0.709312 0 0 0 
27 3 1 -7.00571 -0.504484 3.03406 0 0 0 
30 3 1 -4.27619 -1.95311 -6.8327 0 0 0 
29 2 1 -3.69654 -4.62024 -4.56543 0 0 0 
31 1 1 -1.03854 -3.22972 -0.72389 0 0 0 
32 2 1 1.13036 -2.97877 2.18226 0 0 0 
33 3 1 1.71178 -1.04586 5.11497 0 0 0 
34 1 1 1.29165 -0.442395 -2.13179 0 0 0 
37 1 1 3.79619 2.41856 -2.91311 0 0 0 
38 2 1 6.78334 3.32223 -1.37621 0 0 0 
39 3 1 8.74737 5.18194 1.08805 0 0 0 
47 2 1 10.3606 13.7474 -2.05021 0 0 0 
48 3 1 12.1592 16.4012 -0.60118 0 0 0 
55 1 1 14.2541 21.7801 -3.77918 0 0 0 
58 1 1 16.5403 24.9751 -3.56047 0 0 0 
57 3 1 15.5636 22.3083 3.35173 0 0 0 
56 2 1 14.3829 22.8606 0.131488 0 0 0 
60 3 1 14.9748 28.6893 -9.61035 0 0 0 
59 2 1 16.887 27.3994 -6.82664 0 0 0 
63 3 1 20.1064 34.2206 -6.53204 0 0 0 
64 1 1 21.4001 30.0392 -0.510185 0 0 0 
61 1 1 18.8677 27.7933 -2.46953 0 0 0 
62 2 1 20.2265 30.8687 -4.80289 0 0 0 
65 2 1 22.9579 32.899 -2.13254 0 0 0 
1 1 1 -22.9531 -31.5111 11.1012 0 0 0 
4 1 1 -19.8968 -29.272 10.2085 0 0 0 
5 2 1 -15.869 -29.499 9.59626 0 0 0 
6 3 1 -12.5551 -30.2173 8.06811 0 0 0 
8 2 1 -20.556 -22.4004 7.99788 0 0 0 
7 1 1 -18.7075 -25.8308 9.2926 0 0 0 
10 1 1 -15.7166 -23.4289 8.55962 0 0 0 
14 2 1 -10.3155 -19.6651 8.14183 0 0 0 
15 3 1 -6.82216 -19.9676 7.73309 0 0 0 
16 1 1 -12.5792 -17.164 5.22623 0 0 0 
11 2 1 -12.0275 -24.5234 7.4644 0 0 0 
13 1 1 -13.961 -20.2484 7.23137 0 0 0 
66 3 1 25.2423 35.1174 -3.69634 0 0 0 
12 3 1 -9.01346 -26.4759 8.76947 0 0 0 
ITEM: TIMESTEP
1000000
ITEM: NUMBER OF ATOMS
66
ITEM: BOX BOUNDS pp pp pp
-126.092 126.092
-126.092 126.092
-126.092 126.092
ITEM: ATOMS id type mol x y z ix iy iz 
42 3 1 2.19042 11.3912 -5.12043 0 0 0 
56 2 1 4.43102 22.9098 -7.15802 0 0 0 
57 3 1 0.993008 21.6095 -7.27586 0 0 0 
60 3 1 1.39872 32.6934 -8.22558 0 0 0 
59 2 1 3.44935 30.1833 -6.72854 0 0 0 
63 3 1 4.73611 33.3779 -15.0301 0 0 0 
62 2 1 5.30938 31.0312 -12.4606 0 0 0 
58 1 1 6.0829 27.1597 -6.6106 0 0 0 
61 1 1 7.52625 29.0058 -9.75864 0 0 0 
64 1 1 9.67317 30.7036 -12.3786 0 0 0 
65 2 1 13.6912 30.3769 -12.8694 0 0 0 
66 3 1 16.0887 27.7678 -14.4226 0 0 0 
3 3 1 -1.68748 -39.6263 -1.34763 0 0 0 
2 2 1 -3.60548 -37.8243 1.46595 0 0 0 
10 1 1 -2.8384 -26.7579 4.5224 0 0 0 
5 2 1 0.396505 -34.2193 2.45402 0 0 0 
6 3 1 3.6617 -33.6511 0.92169 0 0 0 
7 1 1 -1.632 -30.3907 5.01404 0 0 0 
8 2 1 1.61769 -28.2691 3.69281 0 0 0 
9 3 1 3.71154 -26.0674 1.33469 0 0 0 
18 3 1 -11.0841 -20.5433 1.56772 0 0 0 
17 2 1 -8.0408 -19.0083 2.36189 0 0 0 
16 1 1 -3.99633 -19.4474 2.43147 0 0 0 
19 1 1 -4.40819 -15.5346 2.0173 0 0 0 
13 1 1 -2.86532 -23.2628 3.06208 0 0 0 
14 2 1 -0.183052 -22.2596 0.406629 0 0 0 
15 3 1 0.965818 -22.9589 -3.15389 0 0 0 
24 3 1 -11.6054 -14.288 3.79091 0 0 0 
23 2 1 -9.79103 -11.0434 2.79516 0 0 0 
25 1 1 -6.2862 -8.12012 0.850472 0 0 0 
22 1 1 -6.10811 -11.975 1.49934 0 0 0 
26 2 1 -2.47124 -6.81125 0.195829 0 0 0 
21 3 1 2.47653 -11.9795 2.90452 0 0 0 
20 2 1 -1.02087 -13.2791 2.09549 0 0 0 
27 3 1 1.35353 -6.05497 -0.183882 0 0 0 
28 1 1 -6.95035 -4.29347 0.632728 0 0 0 
33 3 1 -9.74128 4.69167 -1.51702 0 0 0 
30 3 1 -12.0748 0.125092 -2.11287 0 0 0 
29 2 1 -10.4354 -2.24536 -0.127236 0 0 0 
31 1 1 -5.58843 -0.634885 1.10955 0 0 0 
32 2 1 -7.59733 2.91737 0.651513 0 0 0 
37 1 1 -0.544056 4.8986 2.25368 0 0 0 
34 1 1 -2.67277 1.78524 1.76084 0 0 0 
35 2 1 1.11991 0.365454 1.79609 0 0 0 
38 2 1 2.60699 4.58631 4.84102 0 0 0 
36 3 1 4.22807 -1.70856 2.5208 0 0 0 
41 2 1 2.25792 10.097 -1.52133 0 0 0 
43 1 1 1.64887 12.2343 3.07383 0 0 0 
40 1 1 0.851338 8.49928 2.09505 0 0 0 
48 3 1 1.22786 16.9374 -4.9547 0 0 0 
47 2 1 2.89102 16.1647 -1.47265 0 0 0 
46 1 1 3.12777 15.5977 2.06559 0 0 0 
49 1 1 4.52579 19.1417 1.55586 0 0 0 
52 1 1 4.87402 22.2666 -0.786132 0 0 0 
55 1 1 5.2314 24.766 -3.68344 0 0 0 
50 2 1 7.1533 21.613 3.54584 0 0 0 
53 2 1 5.03243 26.0126 0.241098 0 0 0 
54 3 1 6.03808 29.3659 0.756088 0 0 0 