ITEM: TIMESTEP
0
ITEM: NUMBER OF ATOMS
72
ITEM: BOX BOUNDS pp pp pp
-129.802 129.802
-129.802 129.802
-129.802 129.802
ITEM: ATOMS id type mol x y z ix iy iz 
1 1 1 -6.78722 -7.98163 -40.9788 0 0 0 
2 2 1 -10.1767 -8.04012 -39.1075 0 0 0 
3 3 1 -13.6228 -8.74604 -37.8652 0 0 0 
4 1 1 -6.20169 -7.24647 -37.4604 0 0 0 
5 2 1 -2.67422 -8.18566 -38.3581 0 0 0 
6 3 1 0.912995 -9.15652 -37.5329 0 0 0 
7 1 1 -5.61616 -6.51131 -33.942 0 0 0 
8 2 1 -9.00567 -6.56979 -32.0707 0 0 0 
9 3 1 -12.4517 -7.27571 -30.8284 0 0 0 
10 1 1 -5.03063 -5.77614 -30.4236 0 0 0 
11 2 1 -1.50316 -6.71533 -31.3213 0 0 0 
12 3 1 2.08406 -7.68619 -30.4962 0 0 0 
13 1 1 -4.4451 -5.04098 -26.9052 0 0 0 
15 3 1 -11.2807 -5.80539 -23.7916 0 0 0 
17 2 1 -0.332099 -5.245 -24.2845 0 0 0 
18 3 1 3.25512 -6.21586 -23.4593 0 0 0 
14 2 1 -7.83461 -5.09946 -25.0339 0 0 0 
20 2 1 -6.66355 -3.62914 -17.9971 0 0 0 
21 3 1 -10.1096 -4.33506 -16.7548 0 0 0 
16 1 1 -3.85956 -4.30582 -23.3868 0 0 0 
19 1 1 -3.27403 -3.57065 -19.8684 0 0 0 
22 1 1 -2.6885 -2.83549 -16.35 0 0 0 
23 2 1 0.838961 -3.77467 -17.2477 0 0 0 
24 3 1 4.42618 -4.74554 -16.4225 0 0 0 
26 2 1 -5.49249 -2.15881 -10.9603 0 0 0 
27 3 1 -8.93856 -2.86473 -9.71804 0 0 0 
25 1 1 -2.10297 -2.10033 -12.8316 0 0 0 
28 1 1 -1.51744 -1.36516 -9.31319 0 0 0 
29 2 1 2.01002 -2.30435 -10.2109 0 0 0 
31 1 1 -0.931911 -0.629998 -5.79479 0 0 0 
30 3 1 5.59724 -3.27521 -9.38575 0 0 0 
33 3 1 -7.7675 -1.3944 -2.68124 0 0 0 
39 3 1 -6.59644 0.075921 4.35556 0 0 0 
32 2 1 -4.32143 -0.688482 -3.92353 0 0 0 
34 1 1 -0.34638 0.105164 -2.27638 0 0 0 
35 2 1 3.18108 -0.83402 -3.17409 0 0 0 
37 1 1 0.23915 0.840328 1.24202 0 0 0 
38 2 1 -3.15037 0.781844 3.11327 0 0 0 
40 1 1 0.82468 1.57549 4.76042 0 0 0 
41 2 1 4.35215 0.636306 3.86271 0 0 0 
36 3 1 6.7683 -1.80488 -2.34895 0 0 0 
42 3 1 7.93936 -0.334554 4.68786 0 0 0 
45 3 1 -5.42537 1.54625 11.3924 0 0 0 
43 1 1 1.41021 2.31066 8.27882 0 0 0 
44 2 1 -1.97931 2.25217 10.1501 0 0 0 
46 1 1 1.99574 3.04582 11.7972 0 0 0 
49 1 1 2.58127 3.78098 15.3156 0 0 0 
47 2 1 5.52321 2.10663 10.8995 0 0 0 
48 3 1 9.11042 1.13577 11.7247 0 0 0 
50 2 1 -0.808244 3.7225 17.1869 0 0 0 
51 3 1 -4.25431 3.01658 18.4292 0 0 0 
52 1 1 3.1668 4.51615 18.834 0 0 0 
57 3 1 -3.08325 4.4869 25.466 0 0 0 
53 2 1 6.69427 3.57696 17.9363 0 0 0 
54 3 1 10.2815 2.6061 18.7614 0 0 0 
59 2 1 7.86533 5.04729 24.9731 0 0 0 
60 3 1 11.4525 4.07643 25.7983 0 0 0 
55 1 1 3.75233 5.25131 22.3524 0 0 0 
56 2 1 0.362816 5.19283 24.2237 0 0 0 
58 1 1 4.33786 5.98647 25.8708 0 0 0 
61 1 1 4.9234 6.72164 29.3892 0 0 0 
62 2 1 1.53388 6.66315 31.2605 0 0 0 
63 3 1 -1.91219 5.95723 32.5028 0 0 0 
64 1 1 5.50893 7.4568 32.9076 0 0 0 
65 2 1 9.03639 6.51761 32.0099 0 0 0 
66 3 1 12.6236 5.54675 32.8351 0 0 0 
68 2 1 2.70494 8.13348 38.2973 0 0 0 
69 3 1 -0.74113 7.42756 39.5396 0 0 0 
67 1 1 6.09446 8.19196 36.426 0 0 0 
70 1 1 6.67999 8.92713 39.9444 0 0 0 
71 2 1 10.2074 7.98794 39.0467 0 0 0 
72 3 1 13.7947 7.01708 39.8719 0 0 0 
ITEM: TIMESTEP
100000
ITEM: NUMBER OF ATOMS
72
ITEM: BOX BOUNDS pp pp pp
-129.802 129.802
-129.802 129.802
-129.802 129.802
ITEM: ATOMS id type mol x y z ix iy iz 
1 1 1 19.0577 -7.34092 -33.3536 0 0 0 
9 3 1 14.4364 -17.971 -26.8566 0 0 0 
12 3 1 7.33532 -16.9432 -24.948 0 0 0 
6 3 1 14.533 -15.6349 -34.6953 0 0 0 
8 2 1 13.7754 -14.2551 -26.9801 0 0 0 
7 1 1 13.7525 -10.6466 -28.8003 0 0 0 
10 1 1 10.8457 -10.5285 -26.2882 0 0 0 
11 2 1 8.34207 -13.8262 -26.2262 0 0 0 
2 2 1 17.6218 -4.70748 -30.8601 0 0 0 
5 2 1 16.0988 -13.4701 -31.9194 0 0 0 
4 1 1 16.538 -9.44854 -31.2632 0 0 0 
3 3 1 14.9853 -2.32565 -29.432 0 0 0 
15 3 1 3.23169 -12.2683 -20.4319 0 0 0 
14 2 1 6.3241 -11.0187 -22.2164 0 0 0 
13 1 1 8.24576 -8.82403 -24.0704 0 0 0 
22 1 1 2.26443 -1.5232 -17.0123 0 0 0 
21 3 1 6.09104 3.30878 -18.985 0 0 0 
18 3 1 12.007 -3.36779 -18.7186 0 0 0 
17 2 1 9.09154 -3.56422 -21.2812 0 0 0 
20 2 1 6.11678 -0.216937 -19.8863 0 0 0 
16 1 1 6.25098 -6.32858 -21.812 0 0 0 
19 1 1 4.51763 -3.67217 -19.5171 0 0 0 
24 3 1 -4.01317 -0.163601 -18.9458 0 0 0 
23 2 1 -0.599001 0.75699 -18.4339 0 0 0 
31 1 1 -1.08366 3.13617 -7.26872 0 0 0 
28 1 1 0.0525733 1.60943 -10.6163 0 0 0 
25 1 1 0.716864 0.363446 -14.1414 0 0 0 
26 2 1 -2.02567 2.86161 -15.205 0 0 0 
27 3 1 -2.90114 6.36065 -14.5438 0 0 0 
30 3 1 3.35072 -1.41273 -4.72397 0 0 0 
29 2 1 2.59257 0.745418 -7.77503 0 0 0 
32 2 1 -4.53745 5.46856 -7.30624 0 0 0 
33 3 1 -7.72469 6.95963 -8.49053 0 0 0 
38 2 1 3.30444 2.78803 2.29094 0 0 0 
39 3 1 6.40973 0.758871 2.93003 0 0 0 
36 3 1 -4.57133 8.58983 1.62573 0 0 0 
41 2 1 3.13823 7.06416 6.495 0 0 0 
42 3 1 4.53761 7.33746 10.1036 0 0 0 
35 2 1 -3.9253 5.99341 -1.16326 0 0 0 
37 1 1 0.364936 4.60397 0.250921 0 0 0 
34 1 1 -1.06499 4.18624 -3.39386 0 0 0 
40 1 1 0.389748 6.03909 3.78749 0 0 0 
45 3 1 -7.84884 10.5285 4.44317 0 0 0 
44 2 1 -4.70071 9.60766 6.49711 0 0 0 
47 2 1 -1.52296 11.3137 12.4173 0 0 0 
49 1 1 -4.57337 7.019 13.5038 0 0 0 
43 1 1 -1.45259 7.63396 6.74017 0 0 0 
46 1 1 -2.68785 8.04042 10.3317 0 0 0 
48 3 1 0.536616 13.6051 14.8322 0 0 0 
57 3 1 -17.0712 5.52612 19.091 0 0 0 
52 1 1 -7.30964 5.92064 16.0674 0 0 0 
55 1 1 -9.30374 4.73093 19.2298 0 0 0 
58 1 1 -9.73017 2.68027 22.6276 0 0 0 
56 2 1 -13.3492 4.788 19.631 0 0 0 
54 3 1 -14.3216 8.26968 14.8576 0 0 0 
53 2 1 -11.41 6.10303 15.8366 0 0 0 
51 3 1 -0.59416 7.00497 19.211 0 0 0 
50 2 1 -3.11573 7.44245 16.6252 0 0 0 
66 3 1 -14.8828 -4.23056 34.016 0 0 0 
60 3 1 -17.3439 3.37957 23.7916 0 0 0 
61 1 1 -10.0121 1.11917 26.198 0 0 0 
65 2 1 -12.7423 -1.49105 32.2045 0 0 0 
64 1 1 -9.70631 -0.137087 29.8127 0 0 0 
67 1 1 -7.82106 -1.44803 32.9279 0 0 0 
59 2 1 -13.6926 2.70827 23.1246 0 0 0 
63 3 1 -7.78856 -4.05942 28.7697 0 0 0 
62 2 1 -6.62786 -1.04357 27.1422 0 0 0 
68 2 1 -6.45311 1.50539 35.2996 0 0 0 
69 3 1 -7.64601 4.54928 36.7884 0 0 0 
70 1 1 -5.71508 -3.12765 35.871 0 0 0 
71 2 1 -3.21577 -1.5312 38.3941 0 0 0 
72 3 1 -2.87032 -0.542336 41.7695 0 0 0 
ITEM: TIMESTEP
200000
ITEM: NUMBER OF ATOMS
72
ITEM: BOX BOUNDS pp pp pp
-129.802 129.802
-129.802 129.802
-129.802 129.802
ITEM: ATOMS id type mol x y z ix iy iz 
4 1 1 27.1413 -6.20424 -28.4628 0 0 0 
1 1 1 29.6647 -7.60611 -30.9595 0 0 0 
5 2 1 23.9283 -8.40755 -27.3541 0 0 0 
2 2 1 26.2576 -9.28813 -32.0825 0 0 0 
6 3 1 21.9196 -10.9876 -26.309 0 0 0 
3 3 1 23.1197 -9.13603 -34.2448 0 0 0 
9 3 1 24.6579 3.58841 -26.2195 0 0 0 
7 1 1 24.8547 -3.94685 -26.2553 0 0 0 
8 2 1 25.4426 0.0520321 -25.3056 0 0 0 
12 3 1 16.0421 -7.73051 -25.2793 0 0 0 
11 2 1 18.633 -5.15804 -23.9031 0 0 0 
16 1 1 16.7481 -1.87716 -18.7149 0 0 0 
10 1 1 21.9241 -2.88322 -23.8126 0 0 0 
13 1 1 19.8316 -1.85779 -20.8642 0 0 0 
15 3 1 22.684 3.31371 -16.2469 0 0 0 
14 2 1 20.9499 0.460575 -18.1099 0 0 0 
17 2 1 13.0968 -2.7821 -19.9681 0 0 0 
24 3 1 3.75442 -0.0866395 -16.052 0 0 0 
30 3 1 0.158274 -6.18814 -8.78047 0 0 0 
29 2 1 2.65661 -3.41245 -8.15916 0 0 0 
23 2 1 7.53813 -0.152439 -15.0855 0 0 0 
25 1 1 9.02393 -0.909136 -10.4576 0 0 0 
22 1 1 11.3174 -0.861855 -13.6214 0 0 0 
20 2 1 15.7799 -0.953128 -12.2947 0 0 0 
19 1 1 14.1979 -1.09511 -16.0889 0 0 0 
21 3 1 18.4601 -0.827537 -9.4948 0 0 0 
28 1 1 6.3013 -1.43452 -7.92126 0 0 0 
26 2 1 11.2981 -1.12808 -7.11859 0 0 0 
18 3 1 10.2884 -4.83445 -20.5923 0 0 0 
35 2 1 0.44498 -3.98622 0.288265 0 0 0 
36 3 1 -2.64135 -5.8753 1.45748 0 0 0 
34 1 1 3.02355 -1.20927 -0.988741 0 0 0 
42 3 1 -7.82678 1.31391 1.53362 0 0 0 
37 1 1 1.77769 -0.058787 2.48502 0 0 0 
31 1 1 4.72703 -0.769677 -4.52091 0 0 0 
32 2 1 5.73961 2.59822 -2.75936 0 0 0 
33 3 1 6.83479 5.94013 -2.98357 0 0 0 
27 3 1 13.3209 -2.48653 -4.15484 0 0 0 
49 1 1 -9.97649 1.66515 12.0779 0 0 0 
41 2 1 -4.89273 0.230301 3.3161 0 0 0 
46 1 1 -6.53641 0.686846 10.462 0 0 0 
40 1 1 -1.18121 0.686316 4.96833 0 0 0 
43 1 1 -3.62917 0.886193 8.04022 0 0 0 
38 2 1 2.9809 1.4132 5.94744 0 0 0 
39 3 1 1.82172 3.37639 8.98259 0 0 0 
72 3 1 -30.9276 7.85248 33.2351 0 0 0 
54 3 1 -17.7306 8.15662 9.73691 0 0 0 
48 3 1 -6.3838 -0.131647 17.5667 0 0 0 
47 2 1 -6.32553 -0.341507 13.9053 0 0 0 
44 2 1 -2.16837 1.5818 11.7976 0 0 0 
45 3 1 -0.347912 0.530048 14.7196 0 0 0 
67 1 1 -25.7054 2.97627 26.6625 0 0 0 
70 1 1 -27.588 2.91927 30.0569 0 0 0 
68 2 1 -25.0392 -0.968875 27.7221 0 0 0 
69 3 1 -25.4502 -3.71594 30.0893 0 0 0 
58 1 1 -19.2841 5.2837 17.2406 0 0 0 
61 1 1 -21.4192 4.37965 20.3836 0 0 0 
64 1 1 -23.9518 4.33629 23.3284 0 0 0 
62 2 1 -21.0225 0.631072 21.7722 0 0 0 
57 3 1 -18.8277 -2.02077 18.1005 0 0 0 
53 2 1 -15.0913 7.01076 11.6204 0 0 0 
52 1 1 -13.2447 3.57903 12.8403 0 0 0 
50 2 1 -11.4754 0.318 15.7689 0 0 0 
55 1 1 -16.2486 4.08867 15.1091 0 0 0 
51 3 1 -13.9972 -0.0142214 18.2436 0 0 0 
56 2 1 -18.431 0.92859 16.3035 0 0 0 
71 2 1 -30.0957 4.73021 31.9459 0 0 0 
66 3 1 -30.4623 8.15926 23.6206 0 0 0 
65 2 1 -27.0655 6.96512 23.9008 0 0 0 
60 3 1 -23.4427 11.7156 16.8018 0 0 0 
59 2 1 -21.7581 8.50429 16.9395 0 0 0 
63 3 1 -17.5858 -0.240368 23.1877 0 0 0 
ITEM: TIMESTEP
300000
ITEM: NUMBER OF ATOMS
72
ITEM: BOX BOUNDS pp pp pp
-129.802 129.802
-129.802 129.802
-129.802 129.802
ITEM: ATOMS id type mol x y z ix iy iz 
21 3 1 13.9819 -3.89011 -20.8072 0 0 0 
24 3 1 8.57091 -3.13164 -20.3388 0 0 0 
20 2 1 14.0645 -1.26469 -18.1948 0 0 0 
23 2 1 8.96225 -1.601 -17.1243 0 0 0 
18 3 1 18.3621 -2.07873 -21.1839 0 0 0 
17 2 1 18.3459 -1.35354 -17.3847 0 0 0 
4 1 1 33.3642 1.41735 -13.4302 0 0 0 
2 2 1 37.9322 3.26765 -13.2632 0 0 0 
3 3 1 37.067 6.30831 -15.3791 0 0 0 
1 1 1 36.3448 -0.0577978 -11.7401 0 0 0 
27 3 1 4.2518 0.743924 -19.204 0 0 0 
36 3 1 -8.11805 1.9331 -8.77674 0 0 0 
26 2 1 4.69338 1.39109 -15.5163 0 0 0 
30 3 1 -0.615848 4.31036 -14.8594 0 0 0 
31 1 1 2.3327 2.19145 -7.64106 0 0 0 
28 1 1 4.65121 1.78442 -10.6585 0 0 0 
29 2 1 1.50445 2.21688 -12.8285 0 0 0 
35 2 1 -4.68483 1.24487 -7.51217 0 0 0 
19 1 1 15.0797 0.713087 -14.9513 0 0 0 
25 1 1 7.64848 1.31598 -12.9562 0 0 0 
22 1 1 11.1746 0.571798 -14.4813 0 0 0 
16 1 1 18.826 1.59054 -14.9132 0 0 0 
13 1 1 22.2664 3.23129 -14.2987 0 0 0 
10 1 1 26.1732 3.67957 -14.3866 0 0 0 
14 2 1 19.286 5.6794 -12.8643 0 0 0 
9 3 1 29.1672 9.69025 -17.5498 0 0 0 
7 1 1 29.9294 3.066 -14.0935 0 0 0 
8 2 1 29.9894 6.16564 -16.6545 0 0 0 
5 2 1 32.8254 1.36275 -17.5497 0 0 0 
6 3 1 33.7467 3.10653 -20.5505 0 0 0 
11 2 1 24.0944 7.22366 -14.528 0 0 0 
15 3 1 16.872 7.97304 -11.043 0 0 0 
12 3 1 22.6055 10.2679 -12.8796 0 0 0 
45 3 1 -14.7285 1.19909 3.47637 0 0 0 
43 1 1 -7.02738 1.58708 3.95919 0 0 0 
39 3 1 -10.4167 -0.737659 -5.35839 0 0 0 
38 2 1 -7.44933 0.462717 -3.49326 0 0 0 
44 2 1 -11.0097 0.594911 3.8892 0 0 0 
40 1 1 -5.26735 2.025 0.582875 0 0 0 
32 2 1 3.14671 3.35241 -3.94744 0 0 0 
34 1 1 -1.02519 1.93342 -5.90183 0 0 0 
37 1 1 -3.59618 1.61109 -2.91188 0 0 0 
33 3 1 4.93426 6.37259 -2.72147 0 0 0 
41 2 1 -3.69679 4.69444 3.07094 0 0 0 
42 3 1 -2.40168 7.94234 3.45821 0 0 0 
57 3 1 -22.9534 -2.8324 10.8475 0 0 0 
55 1 1 -16.8327 -1.51551 14.9657 0 0 0 
56 2 1 -20.3808 -2.47567 13.6054 0 0 0 
51 3 1 -17.8443 -2.21224 8.57414 0 0 0 
50 2 1 -14.4734 -1.78723 8.74595 0 0 0 
52 1 1 -13.6765 -0.731434 12.9555 0 0 0 
49 1 1 -11.2719 0.182121 10.1006 0 0 0 
46 1 1 -8.39466 1.22664 7.61333 0 0 0 
47 2 1 -7.54172 2.33971 11.1408 0 0 0 
48 3 1 -5.58743 2.28874 14.5137 0 0 0 
72 3 1 -27.8367 -10.5231 29.3372 0 0 0 
71 2 1 -28.978 -11.778 26.2721 0 0 0 
69 3 1 -27.2644 -14.8619 16.4541 0 0 0 
67 1 1 -25.4825 -9.44845 21.7576 0 0 0 
68 2 1 -25.5912 -12.156 18.5008 0 0 0 
65 2 1 -25.9511 -6.01154 25.3581 0 0 0 
64 1 1 -24.0309 -5.96667 21.8894 0 0 0 
70 1 1 -27.4156 -12.7027 22.6597 0 0 0 
63 3 1 -22.28 -2.19705 26.756 0 0 0 
60 3 1 -22.2662 2.03162 23.6244 0 0 0 
59 2 1 -19.8631 0.620127 21.2519 0 0 0 
58 1 1 -19.1008 -1.8602 18.0778 0 0 0 
62 2 1 -21.1842 -2.98433 23.5299 0 0 0 
61 1 1 -21.5679 -3.66598 20.1839 0 0 0 
53 2 1 -12.6239 -0.224681 16.7281 0 0 0 
54 3 1 -14.2248 -1.12508 19.9303 0 0 0 
66 3 1 -28.1271 -4.85635 27.9935 0 0 0 
ITEM: TIMESTEP
400000
ITEM: NUMBER OF ATOMS
72
ITEM: BOX BOUNDS pp pp pp
-129.802 129.802
-129.802 129.802
-129.802 129.802
ITEM: ATOMS id type mol x y z ix iy iz 
15 3 1 20.003 10.2195 -15.6355 0 0 0 
4 1 1 33.361 13.3475 -12.4232 0 0 0 
6 3 1 27.026 12.1356 -16.2125 0 0 0 
5 2 1 30.1268 12.1977 -14.5988 0 0 0 
2 2 1 33.0117 18.362 -13.9097 0 0 0 
3 3 1 30.239 18.2107 -16.1164 0 0 0 
1 1 1 36.2113 15.8942 -13.5037 0 0 0 
32 2 1 1.41519 -3.7393 -9.77971 0 0 0 
33 3 1 -1.33039 -3.59609 -12.1726 0 0 0 
31 1 1 4.01452 -1.10269 -8.47867 0 0 0 
22 1 1 14.44 2.17268 -11.2188 0 0 0 
27 3 1 7.37186 -4.49509 -15.4802 0 0 0 
26 2 1 8.67167 -1.07633 -14.2881 0 0 0 
25 1 1 10.8336 0.88629 -11.5093 0 0 0 
28 1 1 7.24953 0.256216 -10.3974 0 0 0 
19 1 1 17.9923 3.3713 -12.1683 0 0 0 
17 2 1 19.3754 3.96336 -7.90669 0 0 0 
20 2 1 16.4564 3.72823 -16.0488 0 0 0 
18 3 1 17.778 4.41959 -4.73456 0 0 0 
21 3 1 14.2148 5.99662 -18.0416 0 0 0 
12 3 1 27.6609 2.95347 -5.00723 0 0 0 
24 3 1 12.071 4.69441 -4.70368 0 0 0 
23 2 1 13.4816 2.54689 -7.44769 0 0 0 
16 1 1 21.3683 4.82157 -11.2631 0 0 0 
13 1 1 24.6337 6.89449 -11.337 0 0 0 
14 2 1 22.8054 7.91565 -14.8264 0 0 0 
7 1 1 30.8547 10.9833 -10.5732 0 0 0 
9 3 1 32.208 9.17097 -4.31249 0 0 0 
11 2 1 27.2982 5.96499 -7.27843 0 0 0 
8 2 1 30.4761 10.718 -7.01896 0 0 0 
10 1 1 27.8207 8.64686 -10.4024 0 0 0 
48 3 1 -14.6043 -10.8465 0.539707 0 0 0 
57 3 1 -24.5129 -11.9883 5.85488 0 0 0 
47 2 1 -13.1725 -7.29513 0.998282 0 0 0 
43 1 1 -7.90705 -3.05459 1.31719 0 0 0 
40 1 1 -4.64875 -1.92886 -0.671049 0 0 0 
41 2 1 -5.63546 1.06866 1.463 0 0 0 
46 1 1 -11.0767 -4.60859 3.08595 0 0 0 
49 1 1 -14.0688 -5.3878 5.38772 0 0 0 
37 1 1 -1.76984 -0.9376 -3.21936 0 0 0 
34 1 1 1.00215 -1.47933 -6.00865 0 0 0 
29 2 1 5.94111 3.49978 -8.31129 0 0 0 
42 3 1 -6.3734 4.4903 1.74777 0 0 0 
39 3 1 -2.03982 6.53774 -2.70635 0 0 0 
36 3 1 3.33537 3.54809 -0.973174 0 0 0 
38 2 1 -2.82923 2.82945 -1.92535 0 0 0 
35 2 1 1.18453 1.7359 -3.40013 0 0 0 
30 3 1 5.68726 7.07261 -7.85607 0 0 0 
60 3 1 -25.8622 -14.0387 9.73721 0 0 0 
59 2 1 -24.5376 -11.8079 12.0285 0 0 0 
61 1 1 -25.0277 -8.3889 15.0706 0 0 0 
58 1 1 -22.7052 -8.08238 12.0718 0 0 0 
55 1 1 -20.106 -6.94944 9.46522 0 0 0 
56 2 1 -23.1515 -8.96852 7.72697 0 0 0 
52 1 1 -16.9306 -5.65768 7.86515 0 0 0 
54 3 1 -17.5779 0.764966 11.2068 0 0 0 
53 2 1 -17.2113 -2.84239 10.8476 0 0 0 
44 2 1 -10.0305 -0.119805 3.20944 0 0 0 
45 3 1 -11.4676 3.01355 3.308 0 0 0 
51 3 1 -12.654 -4.01054 12.8571 0 0 0 
50 2 1 -13.2485 -4.13998 9.03917 0 0 0 
63 3 1 -20.2602 -9.39928 21.02 0 0 0 
72 3 1 -32.9206 -8.28291 29.9678 0 0 0 
71 2 1 -33.1439 -9.64514 26.5772 0 0 0 
70 1 1 -29.5316 -9.52023 25.3689 0 0 0 
65 2 1 -30.7193 -6.02641 18.7953 0 0 0 
66 3 1 -34.1229 -5.20361 20.4546 0 0 0 
68 2 1 -24.776 -9.403 24.0914 0 0 0 
62 2 1 -23.1083 -9.6507 18.4054 0 0 0 
67 1 1 -28.1888 -8.60118 21.8497 0 0 0 
64 1 1 -27.2323 -8.00409 18.2136 0 0 0 
69 3 1 -21.5724 -9.08473 26.3401 0 0 0 
ITEM: TIMESTEP
500000
ITEM: NUMBER OF ATOMS
72
ITEM: BOX BOUNDS pp pp pp
-129.802 129.802
-129.802 129.802
-129.802 129.802
ITEM: ATOMS id type mol x y z ix iy iz 
20 2 1 13.2278 8.69874 -15.7201 0 0 0 
21 3 1 13.1801 10.9846 -18.5854 0 0 0 
11 2 1 21.0535 -0.0268514 -10.6394 0 0 0 
13 1 1 19.6216 3.73645 -8.12731 0 0 0 
10 1 1 22.7701 1.63891 -7.30328 0 0 0 
12 3 1 21.6934 -0.979395 -13.909 0 0 0 
4 1 1 29.8709 -0.719775 -5.82229 0 0 0 
1 1 1 33.6023 -1.31449 -6.7722 0 0 0 
7 1 1 26.1551 0.326289 -5.92847 0 0 0 
36 3 1 -9.18767 14.0108 -5.32286 0 0 0 
27 3 1 3.69063 14.6466 -8.34817 0 0 0 
26 2 1 4.54983 12.7355 -11.1104 0 0 0 
33 3 1 -3.63818 15.0224 -10.6458 0 0 0 
28 1 1 3.65108 9.64632 -7.7864 0 0 0 
31 1 1 0.0318306 10.6403 -6.55883 0 0 0 
32 2 1 -3.05188 12.3202 -8.51765 0 0 0 
17 2 1 14.5807 8.45142 -7.97008 0 0 0 
18 3 1 11.7157 9.16998 -5.87566 0 0 0 
22 1 1 10.3277 9.1735 -11.5348 0 0 0 
25 1 1 6.84336 9.6992 -9.84294 0 0 0 
23 2 1 8.85951 12.4579 -13.5193 0 0 0 
19 1 1 13.812 7.39877 -11.9506 0 0 0 
14 2 1 18.1306 6.6319 -5.60572 0 0 0 
16 1 1 16.6162 5.4335 -10.0585 0 0 0 
24 3 1 8.99571 16.0433 -13.3195 0 0 0 
51 3 1 -12.9924 -3.90566 0.24486 0 0 0 
50 2 1 -14.3061 -1.36295 2.88279 0 0 0 
39 3 1 -1.8436 4.27554 5.05605 0 0 0 
30 3 1 3.21385 3.99357 -4.5004 0 0 0 
8 2 1 23.4293 0.743426 -2.88358 0 0 0 
9 3 1 21.8017 -1.34267 -0.433895 0 0 0 
6 3 1 25.7985 -4.94873 -0.917915 0 0 0 
5 2 1 27.8884 -2.57844 -2.77864 0 0 0 
2 2 1 33.5515 -0.11779 -2.86512 0 0 0 
3 3 1 34.3016 2.20334 0.16995 0 0 0 
43 1 1 -8.79582 6.4212 5.06276 0 0 0 
41 2 1 -8.56312 11.0684 4.05098 0 0 0 
40 1 1 -6.40156 8.03553 2.58582 0 0 0 
35 2 1 -6.55492 11.2971 -4.30055 0 0 0 
42 3 1 -12.2373 11.2128 3.21652 0 0 0 
38 2 1 -3.60492 5.50459 1.89111 0 0 0 
37 1 1 -4.23822 8.64044 -0.538124 0 0 0 
34 1 1 -2.80978 10.0737 -3.88836 0 0 0 
29 2 1 3.18144 7.49189 -4.3929 0 0 0 
15 3 1 17.2178 8.87267 -2.93201 0 0 0 
69 3 1 -17.1464 -27.6724 11.1398 0 0 0 
71 2 1 -12.8979 -27.2925 7.69543 0 0 0 
72 3 1 -14.4206 -29.9772 5.9285 0 0 0 
64 1 1 -16.1033 -17.3095 10.4217 0 0 0 
68 2 1 -16.4855 -24.0751 10.7137 0 0 0 
66 3 1 -22.6405 -20.103 13.0917 0 0 0 
65 2 1 -19.3359 -19.5663 11.5532 0 0 0 
70 1 1 -11.8178 -23.7491 9.31473 0 0 0 
67 1 1 -14.2259 -20.6951 9.96492 0 0 0 
60 3 1 -23.2749 -12.7142 6.79789 0 0 0 
59 2 1 -19.9021 -12.3282 7.54454 0 0 0 
61 1 1 -16.1832 -13.5326 10.1209 0 0 0 
58 1 1 -16.7336 -9.97818 8.82364 0 0 0 
55 1 1 -16.5904 -6.22231 7.99697 0 0 0 
56 2 1 -20.4745 -6.51022 8.0121 0 0 0 
57 3 1 -23.3573 -7.63566 10.1276 0 0 0 
62 2 1 -13.3144 -14.4203 12.828 0 0 0 
54 3 1 -20.8154 1.81283 10.0801 0 0 0 
52 1 1 -15.7576 -2.42662 7.51974 0 0 0 
53 2 1 -19.3207 -1.31952 9.31502 0 0 0 
48 3 1 -16.7692 4.87246 10.5244 0 0 0 
46 1 1 -11.3883 3.78807 6.2827 0 0 0 
47 2 1 -13.5742 3.75845 9.56661 0 0 0 
49 1 1 -13.6701 0.512414 6.35588 0 0 0 
45 3 1 -12.154 10.6222 10.206 0 0 0 
44 2 1 -10.1104 7.86951 8.6728 0 0 0 
63 3 1 -12.2074 -16.4344 15.8427 0 0 0 
ITEM: TIMESTEP
600000
ITEM: NUMBER OF ATOMS
72
ITEM: BOX BOUNDS pp pp pp
-129.802 129.802
-129.802 129.802
-129.802 129.802
ITEM: ATOMS id type mol x y z ix iy iz 
39 3 1 -3.90181 -6.12385 -9.33398 0 0 0 
38 2 1 -1.41914 -5.33899 -6.84774 0 0 0 
32 2 1 6.36569 -4.85195 -9.10923 0 0 0 
33 3 1 5.25452 -8.55217 -9.06134 0 0 0 
30 3 1 14.6313 -7.05028 -9.86865 0 0 0 
48 3 1 -14.5155 2.48223 0.994162 0 0 0 
34 1 1 4.69387 -1.77538 -5.16055 0 0 0 
36 3 1 5.96502 0.906916 1.39483 0 0 0 
35 2 1 4.40417 -0.455774 -1.37628 0 0 0 
26 2 1 12.2636 2.56071 -3.7801 0 0 0 
31 1 1 8.23798 -1.81844 -7.01504 0 0 0 
28 1 1 11.8153 -0.429049 -7.33014 0 0 0 
25 1 1 14.5481 2.27751 -7.06364 0 0 0 
29 2 1 12.3438 -4.08141 -8.87979 0 0 0 
23 2 1 17.3245 2.87528 -10.8121 0 0 0 
24 3 1 17.8286 -0.285162 -12.9668 0 0 0 
22 1 1 17.1399 5.06854 -7.49602 0 0 0 
27 3 1 8.58232 2.6826 -2.73063 0 0 0 
21 3 1 21.4955 4.87088 -13.4783 0 0 0 
20 2 1 20.3164 6.30815 -10.37 0 0 0 
18 3 1 21.1168 12.9104 -13.2882 0 0 0 
17 2 1 20.3621 12.3955 -9.52844 0 0 0 
19 1 1 19.3637 8.24765 -7.15584 0 0 0 
16 1 1 21.0567 11.5426 -5.97272 0 0 0 
14 2 1 23.5795 15.1866 -7.48186 0 0 0 
15 3 1 24.5719 15.7368 -11.1089 0 0 0 
62 2 1 -25.577 -16.6776 4.44895 0 0 0 
63 3 1 -25.8226 -20.4503 4.04587 0 0 0 
55 1 1 -19.7961 -7.62574 3.41784 0 0 0 
52 1 1 -16.4309 -5.95076 2.0477 0 0 0 
49 1 1 -12.7832 -4.78419 1.39297 0 0 0 
50 2 1 -12.308 -7.75397 3.74989 0 0 0 
46 1 1 -9.61011 -3.24114 -0.0243823 0 0 0 
37 1 1 0.983138 -2.92631 -4.63301 0 0 0 
43 1 1 -5.99788 -3.21592 -1.42694 0 0 0 
44 2 1 -6.79679 -6.84865 -0.0905436 0 0 0 
41 2 1 -1.8319 -4.41384 1.44561 0 0 0 
40 1 1 -2.28049 -3.43691 -2.49444 0 0 0 
57 3 1 -25.2761 -2.42014 4.69794 0 0 0 
54 3 1 -20.192 -0.740879 -1.36496 0 0 0 
56 2 1 -22.6152 -5.07968 4.9092 0 0 0 
53 2 1 -19.2663 -3.30482 0.854208 0 0 0 
47 2 1 -11.6765 0.0969432 0.876561 0 0 0 
42 3 1 -0.704046 -3.83833 4.92986 0 0 0 
13 1 1 22.8291 14.0103 -3.58497 0 0 0 
8 2 1 27.8506 19.5521 -0.218839 0 0 0 
9 3 1 30.7247 20.1658 -2.32172 0 0 0 
10 1 1 24.2655 16.1879 -0.822907 0 0 0 
11 2 1 20.3387 15.3614 -0.215983 0 0 0 
12 3 1 17.4062 12.8509 -0.334461 0 0 0 
7 1 1 25.4532 18.0033 2.4109 0 0 0 
6 3 1 18.071 17.3009 5.09162 0 0 0 
68 2 1 -30.9527 -20.0077 8.94995 0 0 0 
69 3 1 -31.3057 -20.6506 5.1526 0 0 0 
70 1 1 -33.6526 -18.0891 12.1691 0 0 0 
67 1 1 -30.5537 -16.6308 10.0028 0 0 0 
64 1 1 -28.0462 -14.469 8.01047 0 0 0 
65 2 1 -29.4892 -11.7005 10.5397 0 0 0 
59 2 1 -26.5451 -8.93693 4.03563 0 0 0 
58 1 1 -22.6135 -10.2146 4.46262 0 0 0 
61 1 1 -25.1716 -12.9056 5.85853 0 0 0 
51 3 1 -11.326 -9.44461 6.65429 0 0 0 
45 3 1 -7.56076 -9.41865 2.29835 0 0 0 
60 3 1 -29.0434 -6.34817 5.16874 0 0 0 
3 3 1 30.1701 23.9138 7.48789 0 0 0 
2 2 1 29.4838 20.3152 7.08725 0 0 0 
1 1 1 27.0267 18.6948 9.86748 0 0 0 
4 1 1 25.5278 17.9467 6.23722 0 0 0 
5 2 1 21.8674 16.8206 4.86725 0 0 0 
72 3 1 -36.8561 -13.7265 17.3704 0 0 0 
71 2 1 -35.6703 -15.6867 14.5271 0 0 0 
66 3 1 -31.9742 -9.59962 12.2095 0 0 0 
ITEM: TIMESTEP
700000
ITEM: NUMBER OF ATOMS
72
ITEM: BOX BOUNDS pp pp pp
-129.802 129.802
-129.802 129.802
-129.802 129.802
ITEM: ATOMS id type mol x y z ix iy iz 
48 3 1 -12.1587 -0.998786 -19.6471 0 0 0 
45 3 1 -8.96677 3.99157 -15.1737 0 0 0 
42 3 1 -4.96185 -0.869178 -4.29333 0 0 0 
41 2 1 -3.39148 -1.55842 -7.66794 0 0 0 
44 2 1 -6.34816 1.75659 -14.9122 0 0 0 
39 3 1 3.0529 0.600631 -17.17 0 0 0 
49 1 1 -10.255 -6.39712 -13.2391 0 0 0 
52 1 1 -11.5943 -9.43036 -11.2801 0 0 0 
47 2 1 -9.98119 -2.42962 -16.9681 0 0 0 
56 2 1 -16.3476 -15.1479 -11.9806 0 0 0 
50 2 1 -12.5251 -8.15926 -15.967 0 0 0 
51 3 1 -14.251 -10.6936 -17.7259 0 0 0 
46 1 1 -7.91254 -3.16117 -13.6141 0 0 0 
43 1 1 -4.94006 -1.10513 -12.2085 0 0 0 
40 1 1 -1.88665 0.290286 -10.3743 0 0 0 
38 2 1 1.83337 0.919407 -13.4899 0 0 0 
36 3 1 4.36996 5.47583 -15.5604 0 0 0 
37 1 1 1.2242 2.39796 -9.70053 0 0 0 
34 1 1 3.81907 4.8761 -8.05818 0 0 0 
35 2 1 4.43919 4.19817 -12.1147 0 0 0 
31 1 1 5.40442 7.58883 -5.53366 0 0 0 
32 2 1 3.66969 10.0875 -8.28324 0 0 0 
33 3 1 1.5889 11.6899 -10.9964 0 0 0 
27 3 1 14.8721 6.2082 -3.06875 0 0 0 
66 3 1 -10.9045 -23.1891 2.05221 0 0 0 
69 3 1 -13.4906 -22.9941 7.55253 0 0 0 
68 2 1 -14.1602 -19.6138 6.1026 0 0 0 
67 1 1 -15.6495 -16.6226 3.60264 0 0 0 
64 1 1 -15.1523 -17.3013 -0.274514 0 0 0 
65 2 1 -13.8571 -20.8835 1.28601 0 0 0 
61 1 1 -14.7868 -17.0054 -4.18083 0 0 0 
62 2 1 -15.0612 -20.844 -3.94143 0 0 0 
60 3 1 -14.4839 -22.6092 -9.18797 0 0 0 
59 2 1 -14.7453 -19.4457 -7.55466 0 0 0 
57 3 1 -15.6521 -18.237 -13.3306 0 0 0 
63 3 1 -15.9434 -24.2652 -3.86982 0 0 0 
70 1 1 -16.6572 -15.4628 7.0962 0 0 0 
53 2 1 -12.3608 -9.76889 -7.28148 0 0 0 
58 1 1 -14.155 -15.6231 -7.70543 0 0 0 
55 1 1 -13.4126 -12.8209 -10.365 0 0 0 
54 3 1 -15.0527 -10.5936 -5.13069 0 0 0 
28 1 1 7.56803 8.46401 -2.42344 0 0 0 
30 3 1 2.57731 12.2741 -4.11251 0 0 0 
29 2 1 5.94025 11.3857 -3.56003 0 0 0 
26 2 1 12.613 7.3262 -0.736239 0 0 0 
25 1 1 9.25726 9.09194 0.900617 0 0 0 
22 1 1 9.57447 10.1131 4.61894 0 0 0 
24 3 1 16.4662 7.98923 4.8259 0 0 0 
23 2 1 13.0196 8.21173 3.95815 0 0 0 
71 2 1 -18.3308 -11.7041 7.75752 0 0 0 
72 3 1 -20.8625 -8.90598 8.87728 0 0 0 
21 3 1 2.12109 14.6223 5.86198 0 0 0 
18 3 1 2.08258 9.94962 11.0895 0 0 0 
20 2 1 5.28743 12.5357 6.72544 0 0 0 
19 1 1 8.91791 11.4525 8.107 0 0 0 
17 2 1 5.05287 11.9848 10.8744 0 0 0 
14 2 1 7.41715 14.4313 16.478 0 0 0 
16 1 1 9.03415 12.3202 11.8397 0 0 0 
13 1 1 11.0608 12.9857 15.0208 0 0 0 
8 2 1 15.0492 7.68491 16.8195 0 0 0 
3 3 1 18.6299 4.79465 13.619 0 0 0 
9 3 1 12.837 4.76149 17.6038 0 0 0 
15 3 1 4.51502 14.7128 18.3034 0 0 0 
12 3 1 15.4466 19.5405 17.7147 0 0 0 
11 2 1 13.4247 16.3048 18.0399 0 0 0 
10 1 1 14.4332 12.6467 16.6203 0 0 0 
6 3 1 20.5579 17.8165 17.3635 0 0 0 
7 1 1 17.7026 10.8359 16.9342 0 0 0 
4 1 1 21.5889 10.1308 17.1741 0 0 0 
5 2 1 21.6168 14.0646 18.1384 0 0 0 
1 1 1 24.5034 7.55905 16.8023 0 0 0 
2 2 1 21.9248 6.58157 14.2141 0 0 0 
ITEM: TIMESTEP
800000
ITEM: NUMBER OF ATOMS
72
ITEM: BOX BOUNDS pp pp pp
-129.802 129.802
-129.802 129.802
-129.802 129.802
ITEM: ATOMS id type mol x y z ix iy iz 
71 2 1 -12.829 -25.4238 -27.7445 0 0 0 
72 3 1 -9.6883 -23.8555 -28.741 0 0 0 
69 3 1 -10.9527 -16.8931 -25.2107 0 0 0 
65 2 1 -17.6673 -19.0552 -19.7269 0 0 0 
70 1 1 -15.9276 -23.7563 -25.5227 0 0 0 
67 1 1 -15.5506 -22.0193 -22.0797 0 0 0 
64 1 1 -15.5353 -21.4378 -18.2085 0 0 0 
68 2 1 -13.3143 -19.6779 -24.6351 0 0 0 
60 3 1 -7.90847 -23.0094 -13.0942 0 0 0 
59 2 1 -10.71 -21.1096 -12.3509 0 0 0 
66 3 1 -18.5819 -16.0444 -17.5067 0 0 0 
62 2 1 -19.1444 -21.3072 -15.1556 0 0 0 
63 3 1 -22.3143 -20.4144 -16.1316 0 0 0 
61 1 1 -15.1979 -20.7783 -14.3558 0 0 0 
55 1 1 -13.9982 -18.5519 -7.02036 0 0 0 
56 2 1 -17.8636 -18.9391 -7.50963 0 0 0 
57 3 1 -21.2739 -17.961 -7.08632 0 0 0 
54 3 1 -15.8308 -22.437 -0.645786 0 0 0 
53 2 1 -14.5015 -19.3765 -2.24157 0 0 0 
58 1 1 -14.2589 -19.9714 -10.6787 0 0 0 
52 1 1 -11.7258 -17.1951 -4.19176 0 0 0 
50 2 1 -9.21887 -19.0792 -1.13438 0 0 0 
51 3 1 -10.1024 -21.8495 1.20156 0 0 0 
48 3 1 -7.68651 -12.9973 -9.04998 0 0 0 
47 2 1 -7.47197 -11.8046 -5.35527 0 0 0 
49 1 1 -8.73998 -15.2598 -2.66381 0 0 0 
44 2 1 -4.32536 -13.0037 2.46906 0 0 0 
46 1 1 -5.89649 -12.7289 -1.74834 0 0 0 
43 1 1 -3.75089 -9.94681 -0.127631 0 0 0 
33 3 1 0.917977 -0.0251428 -4.24884 0 0 0 
27 3 1 7.25763 9.18319 -2.28284 0 0 0 
21 3 1 12.9351 16.6243 0.957903 0 0 0 
18 3 1 9.59374 13.0923 13.4261 0 0 0 
17 2 1 9.08362 16.3966 12.597 0 0 0 
9 3 1 22.5864 24.4386 9.18193 0 0 0 
45 3 1 -4.2193 -14.8611 5.39325 0 0 0 
42 3 1 0.340428 -12.521 6.15329 0 0 0 
41 2 1 -0.357599 -10.4004 3.34091 0 0 0 
39 3 1 1.44803 -6.55038 8.39747 0 0 0 
40 1 1 -1.37472 -6.95188 1.24523 0 0 0 
38 2 1 1.73125 -5.71118 5.02958 0 0 0 
37 1 1 0.252247 -3.50065 1.9506 0 0 0 
35 2 1 -0.667349 -0.112724 5.3426 0 0 0 
34 1 1 1.44491 0.216005 1.89415 0 0 0 
31 1 1 3.06092 3.75665 1.71372 0 0 0 
28 1 1 4.34407 6.87121 3.74925 0 0 0 
32 2 1 3.05647 2.20094 -1.94549 0 0 0 
30 3 1 -1.34016 4.17766 7.80203 0 0 0 
29 2 1 1.56313 4.81613 6.01942 0 0 0 
26 2 1 7.63062 9.74625 1.40734 0 0 0 
24 3 1 5.48737 11.2252 13.5725 0 0 0 
23 2 1 5.99077 11.3843 9.98813 0 0 0 
25 1 1 6.27217 10.0388 5.14841 0 0 0 
22 1 1 7.62123 13.2932 6.80101 0 0 0 
20 2 1 10.1894 16.2997 3.65071 0 0 0 
19 1 1 9.79021 16.399 7.80863 0 0 0 
15 3 1 15.9604 23.4792 4.50804 0 0 0 
12 3 1 8.54561 22.3919 14.9192 0 0 0 
11 2 1 11.344 24.1135 13.831 0 0 0 
14 2 1 15.1162 21.1822 7.08666 0 0 0 
10 1 1 15.294 24.5022 13.1555 0 0 0 
13 1 1 14.0609 21.468 11.0367 0 0 0 
16 1 1 11.4247 18.7824 10.2408 0 0 0 
8 2 1 19.9486 24.3275 11.88 0 0 0 
5 2 1 16.9939 30.8918 12.9605 0 0 0 
7 1 1 18.0184 26.9654 14.2001 0 0 0 
4 1 1 19.2683 30.1415 15.991 0 0 0 
3 3 1 18.173 37.6425 13.2842 0 0 0 
2 2 1 19.4805 34.7674 15.1701 0 0 0 
1 1 1 21.0553 33.0378 17.8928 0 0 0 
36 3 1 0.0487559 -1.10452 8.63251 0 0 0 
6 3 1 13.6749 31.7592 11.7007 0 0 0 
ITEM: TIMESTEP
900000
ITEM: NUMBER OF ATOMS
72
ITEM: BOX BOUNDS pp pp pp
-129.802 129.802
-129.802 129.802
-129.802 129.802
ITEM: ATOMS id type mol x y z ix iy iz 
63 3 1 -11.2561 -23.3239 -3.56175 0 0 0 
69 3 1 -15.8326 -32.1217 -18.362 0 0 0 
71 2 1 -11.9655 -36.3323 -15.7907 0 0 0 
72 3 1 -13.7554 -38.4132 -18.1672 0 0 0 
67 1 1 -11.5756 -30.8428 -12.3488 0 0 0 
62 2 1 -10.3302 -23.9942 -7.09208 0 0 0 
64 1 1 -10.6359 -27.3224 -10.8078 0 0 0 
70 1 1 -10.9255 -34.6291 -12.6565 0 0 0 
65 2 1 -13.5823 -28.4368 -8.29629 0 0 0 
66 3 1 -15.8959 -26.9865 -5.72562 0 0 0 
68 2 1 -13.7203 -31.8486 -15.541 0 0 0 
61 1 1 -8.93936 -23.8371 -10.985 0 0 0 
58 1 1 -6.67513 -20.5819 -11.3298 0 0 0 
55 1 1 -4.63153 -17.4827 -10.4279 0 0 0 
59 2 1 -7.29909 -21.8547 -15.0785 0 0 0 
57 3 1 0.878342 -20.3287 -14.3338 0 0 0 
56 2 1 -2.18736 -19.0503 -13.2289 0 0 0 
48 3 1 -4.41446 -14.9209 -1.17266 0 0 0 
52 1 1 -3.22571 -14.246 -8.59816 0 0 0 
49 1 1 -2.798 -11.0115 -6.41799 0 0 0 
46 1 1 -3.20429 -7.98667 -4.04057 0 0 0 
47 2 1 -3.98586 -11.547 -2.07573 0 0 0 
54 3 1 2.39547 -13.5375 -13.5211 0 0 0 
53 2 1 -0.731001 -14.6843 -11.5781 0 0 0 
50 2 1 0.369894 -10.6333 -8.76342 0 0 0 
51 3 1 2.75604 -7.70164 -9.64534 0 0 0 
45 3 1 -7.03775 -7.90087 1.58402 0 0 0 
43 1 1 -3.00419 -4.1321 -3.01322 0 0 0 
44 2 1 -4.4359 -5.99337 0.349241 0 0 0 
60 3 1 -7.84287 -24.8364 -17.5355 0 0 0 
42 3 1 3.12217 -3.03205 -6.12892 0 0 0 
38 2 1 -7.55502 0.793546 -3.08234 0 0 0 
39 3 1 -10.0126 -1.77499 -3.0359 0 0 0 
40 1 1 -2.85218 -0.334406 -2.90048 0 0 0 
37 1 1 -4.64625 2.9992 -1.81732 0 0 0 
41 2 1 1.00389 -1.08355 -3.94587 0 0 0 
35 2 1 -0.139863 5.63835 -1.05921 0 0 0 
36 3 1 3.09193 6.13527 -2.70956 0 0 0 
33 3 1 -9.78843 10.98 -5.09127 0 0 0 
32 2 1 -7.37764 9.65798 -2.98908 0 0 0 
29 2 1 -8.01009 13.8169 1.86596 0 0 0 
34 1 1 -4.16964 6.6014 -0.684551 0 0 0 
31 1 1 -4.67736 10.224 0.0380975 0 0 0 
28 1 1 -3.97667 13.3328 2.07574 0 0 0 
30 3 1 -11.7383 12.9809 2.0368 0 0 0 
25 1 1 -1.58843 15.3796 4.12178 0 0 0 
27 3 1 -6.99079 20.4897 3.80364 0 0 0 
26 2 1 -4.88906 17.7852 4.0944 0 0 0 
21 3 1 -1.36913 22.0855 7.57213 0 0 0 
23 2 1 3.00241 13.9177 3.38731 0 0 0 
24 3 1 5.87374 12.1208 1.63488 0 0 0 
9 3 1 18.7945 16.0385 12.7016 0 0 0 
18 3 1 3.42748 25.2959 9.69207 0 0 0 
22 1 1 1.55129 16.022 6.32315 0 0 0 
17 2 1 5.20091 21.8453 9.16314 0 0 0 
20 2 1 0.750728 19.7355 8.83812 0 0 0 
19 1 1 4.10578 17.6503 8.73454 0 0 0 
16 1 1 7.23785 18.7273 10.4818 0 0 0 
13 1 1 10.5697 18.6894 12.2841 0 0 0 
14 2 1 10.303 14.7256 10.9791 0 0 0 
10 1 1 13.7064 20.2104 13.9356 0 0 0 
15 3 1 9.68864 11.154 10.8935 0 0 0 
11 2 1 11.3789 23.054 12.6702 0 0 0 
2 2 1 23.5116 17.1581 16.522 0 0 0 
3 3 1 24.1638 13.6597 18.0404 0 0 0 
12 3 1 9.06339 23.9014 15.3166 0 0 0 
8 2 1 16.5198 16.5343 15.3408 0 0 0 
7 1 1 17.1218 20.4399 15.6351 0 0 0 
4 1 1 20.5215 21.5077 16.962 0 0 0 
1 1 1 24.4457 21.0526 17.2041 0 0 0 
5 2 1 17.8255 24.414 17.9946 0 0 0 
6 3 1 16.783 26.6352 20.707 0 0 0 
ITEM: TIMESTEP
1000000
ITEM: NUMBER OF ATOMS
72
ITEM: BOX BOUNDS pp pp pp
-129.802 129.802