ITEM: TIMESTEP
0
ITEM: NUMBER OF ATOMS
84
ITEM: BOX BOUNDS pp pp pp
-136.647 136.647
-136.647 136.647
-136.647 136.647
ITEM: ATOMS id type mol x y z ix iy iz 
1 1 1 -7.95828 -9.45196 -48.0156 0 0 0 
2 2 1 -11.3478 -9.51044 -46.1443 0 0 0 
3 3 1 -14.7939 -10.2164 -44.9021 0 0 0 
4 1 1 -7.37275 -8.7168 -44.4972 0 0 0 
7 1 1 -6.78722 -7.98163 -40.9788 0 0 0 
8 2 1 -10.1767 -8.04012 -39.1075 0 0 0 
9 3 1 -13.6228 -8.74604 -37.8652 0 0 0 
10 1 1 -6.20169 -7.24647 -37.4604 0 0 0 
5 2 1 -3.84528 -9.65598 -45.3949 0 0 0 
6 3 1 -0.258066 -10.6268 -44.5697 0 0 0 
11 2 1 -2.67422 -8.18566 -38.3581 0 0 0 
12 3 1 0.912995 -9.15652 -37.5329 0 0 0 
13 1 1 -5.61616 -6.51131 -33.942 0 0 0 
14 2 1 -9.00567 -6.56979 -32.0707 0 0 0 
15 3 1 -12.4517 -7.27571 -30.8284 0 0 0 
16 1 1 -5.03063 -5.77614 -30.4236 0 0 0 
17 2 1 -1.50316 -6.71533 -31.3213 0 0 0 
18 3 1 2.08406 -7.68619 -30.4962 0 0 0 
19 1 1 -4.4451 -5.04098 -26.9052 0 0 0 
20 2 1 -7.83461 -5.09946 -25.0339 0 0 0 
21 3 1 -11.2807 -5.80539 -23.7916 0 0 0 
23 2 1 -0.332099 -5.245 -24.2845 0 0 0 
24 3 1 3.25512 -6.21586 -23.4593 0 0 0 
26 2 1 -6.66355 -3.62914 -17.9971 0 0 0 
27 3 1 -10.1096 -4.33506 -16.7548 0 0 0 
22 1 1 -3.85956 -4.30582 -23.3868 0 0 0 
25 1 1 -3.27403 -3.57065 -19.8684 0 0 0 
28 1 1 -2.6885 -2.83549 -16.35 0 0 0 
29 2 1 0.838961 -3.77467 -17.2477 0 0 0 
30 3 1 4.42618 -4.74554 -16.4225 0 0 0 
32 2 1 -5.49249 -2.15881 -10.9603 0 0 0 
33 3 1 -8.93856 -2.86473 -9.71804 0 0 0 
31 1 1 -2.10297 -2.10033 -12.8316 0 0 0 
34 1 1 -1.51744 -1.36516 -9.31319 0 0 0 
35 2 1 2.01002 -2.30435 -10.2109 0 0 0 
37 1 1 -0.931911 -0.629998 -5.79479 0 0 0 
36 3 1 5.59724 -3.27521 -9.38575 0 0 0 
39 3 1 -7.7675 -1.3944 -2.68124 0 0 0 
45 3 1 -6.59644 0.075921 4.35556 0 0 0 
38 2 1 -4.32143 -0.688482 -3.92353 0 0 0 
40 1 1 -0.34638 0.105164 -2.27638 0 0 0 
41 2 1 3.18108 -0.83402 -3.17409 0 0 0 
43 1 1 0.23915 0.840328 1.24202 0 0 0 
44 2 1 -3.15037 0.781844 3.11327 0 0 0 
46 1 1 0.82468 1.57549 4.76042 0 0 0 
47 2 1 4.35215 0.636306 3.86271 0 0 0 
42 3 1 6.7683 -1.80488 -2.34895 0 0 0 
48 3 1 7.93936 -0.334554 4.68786 0 0 0 
51 3 1 -5.42537 1.54625 11.3924 0 0 0 
49 1 1 1.41021 2.31066 8.27882 0 0 0 
50 2 1 -1.97931 2.25217 10.1501 0 0 0 
52 1 1 1.99574 3.04582 11.7972 0 0 0 
53 2 1 5.52321 2.10663 10.8995 0 0 0 
54 3 1 9.11042 1.13577 11.7247 0 0 0 
55 1 1 2.58127 3.78098 15.3156 0 0 0 
56 2 1 -0.808244 3.7225 17.1869 0 0 0 
57 3 1 -4.25431 3.01658 18.4292 0 0 0 
58 1 1 3.1668 4.51615 18.834 0 0 0 
59 2 1 6.69427 3.57696 17.9363 0 0 0 
60 3 1 10.2815 2.6061 18.7614 0 0 0 
65 2 1 7.86533 5.04729 24.9731 0 0 0 
61 1 1 3.75233 5.25131 22.3524 0 0 0 
62 2 1 0.362816 5.19283 24.2237 0 0 0 
63 3 1 -3.08325 4.4869 25.466 0 0 0 
66 3 1 11.4525 4.07643 25.7983 0 0 0 
64 1 1 4.33786 5.98647 25.8708 0 0 0 
67 1 1 4.9234 6.72164 29.3892 0 0 0 
68 2 1 1.53388 6.66315 31.2605 0 0 0 
69 3 1 -1.91219 5.95723 32.5028 0 0 0 
70 1 1 5.50893 7.4568 32.9076 0 0 0 
71 2 1 9.03639 6.51761 32.0099 0 0 0 
72 3 1 12.6236 5.54675 32.8351 0 0 0 
74 2 1 2.70494 8.13348 38.2973 0 0 0 
75 3 1 -0.74113 7.42756 39.5396 0 0 0 
80 2 1 3.876 9.60381 45.3341 0 0 0 
73 1 1 6.09446 8.19196 36.426 0 0 0 
76 1 1 6.67999 8.92713 39.9444 0 0 0 
77 2 1 10.2074 7.98794 39.0467 0 0 0 
78 3 1 13.7947 7.01708 39.8719 0 0 0 
79 1 1 7.26552 9.66229 43.4628 0 0 0 
81 3 1 0.429931 8.89788 46.5764 0 0 0 
82 1 1 7.85105 10.3974 46.9812 0 0 0 
83 2 1 11.3785 9.45827 46.0835 0 0 0 
84 3 1 14.9657 8.48741 46.9087 0 0 0 
ITEM: TIMESTEP
100000
ITEM: NUMBER OF ATOMS
84
ITEM: BOX BOUNDS pp pp pp
-136.647 136.647
-136.647 136.647
-136.647 136.647
ITEM: ATOMS id type mol x y z ix iy iz 
27 3 1 -0.0576277 2.64353 -26.8242 0 0 0 
15 3 1 20.0909 -0.361849 -24.1492 0 0 0 
4 1 1 32.234 8.29424 -24.0243 0 0 0 
1 1 1 35.2236 10.5727 -23.29 0 0 0 
21 3 1 8.82887 12.2755 -28.9343 0 0 0 
20 2 1 10.4874 9.11705 -27.4001 0 0 0 
13 1 1 20.4836 7.17282 -23.8975 0 0 0 
14 2 1 18.9016 3.27807 -24.13 0 0 0 
7 1 1 28.3182 7.60998 -23.9544 0 0 0 
5 2 1 32.4121 4.34303 -24.605 0 0 0 
8 2 1 26.4999 3.92284 -23.7233 0 0 0 
6 3 1 33.4547 0.765815 -23.5927 0 0 0 
9 3 1 25.3178 0.284493 -23.8287 0 0 0 
2 2 1 35.8087 8.3281 -26.7083 0 0 0 
3 3 1 34.9442 6.12619 -29.2074 0 0 0 
36 3 1 -5.27575 0.400626 -8.87877 0 0 0 
32 2 1 -2.67881 3.89176 -16.2831 0 0 0 
33 3 1 -6.30666 4.21517 -16.359 0 0 0 
31 1 1 1.12332 2.72792 -16.9514 0 0 0 
26 2 1 2.40512 3.8909 -24.5599 0 0 0 
25 1 1 5.54821 4.48371 -23.0854 0 0 0 
28 1 1 3.52556 2.9793 -20.0934 0 0 0 
29 2 1 5.32265 0.131399 -17.6881 0 0 0 
22 1 1 9.05834 5.84789 -24.0719 0 0 0 
19 1 1 12.7933 7.131 -24.6549 0 0 0 
23 2 1 8.71931 5.32609 -19.9648 0 0 0 
11 2 1 23.0809 10.7964 -21.778 0 0 0 
17 2 1 14.8734 5.64984 -20.3641 0 0 0 
16 1 1 16.586 6.98599 -23.8271 0 0 0 
18 3 1 15.4187 4.49061 -17.0571 0 0 0 
12 3 1 21.8491 11.8091 -18.7308 0 0 0 
10 1 1 24.3429 7.95298 -23.9013 0 0 0 
45 3 1 -5.70196 4.47023 -2.93043 0 0 0 
35 2 1 -2.47548 1.73335 -10.8184 0 0 0 
38 2 1 4.62156 -2.80659 -8.85133 0 0 0 
40 1 1 0.594921 -1.57569 -6.30858 0 0 0 
34 1 1 0.751955 1.20859 -13.3106 0 0 0 
37 1 1 1.22908 -0.687624 -9.88713 0 0 0 
30 3 1 8.02716 -2.11709 -16.2252 0 0 0 
24 3 1 7.55007 6.28851 -16.6968 0 0 0 
51 3 1 -12.5848 -3.2904 4.07575 0 0 0 
44 2 1 -4.79282 0.71738 -2.57434 0 0 0 
49 1 1 -5.08403 -3.66587 3.49076 0 0 0 
50 2 1 -9.00933 -4.79929 3.841 0 0 0 
46 1 1 -2.80634 -2.86489 0.423955 0 0 0 
43 1 1 -1.60396 -1.75352 -3.20449 0 0 0 
47 2 1 -0.650536 -4.32139 3.56494 0 0 0 
48 3 1 1.34948 -3.19185 6.69467 0 0 0 
39 3 1 7.74845 -3.69042 -7.05845 0 0 0 
41 2 1 2.81059 -3.14565 -3.55179 0 0 0 
42 3 1 4.14512 -6.0734 -2.15927 0 0 0 
57 3 1 -15.078 -4.68783 8.57787 0 0 0 
56 2 1 -11.5105 -4.75737 10.0333 0 0 0 
52 1 1 -5.97519 -3.37489 7.2125 0 0 0 
55 1 1 -7.77276 -3.14349 10.6504 0 0 0 
58 1 1 -9.74301 -3.22756 13.9474 0 0 0 
53 2 1 -3.00654 -4.29124 9.95492 0 0 0 
54 3 1 0.0820915 -5.41002 11.4021 0 0 0 
63 3 1 -14.8385 -10.3928 16.6544 0 0 0 
68 2 1 -17.4979 -10.2664 22.7738 0 0 0 
62 2 1 -14.3511 -6.95084 16.5927 0 0 0 
67 1 1 -16.3579 -6.37509 22.8734 0 0 0 
69 3 1 -15.4809 -12.6866 24.1422 0 0 0 
59 2 1 -9.47081 -0.394049 17.0042 0 0 0 
64 1 1 -14.2586 -4.58774 20.1384 0 0 0 
61 1 1 -12.17 -4.13153 16.8679 0 0 0 
60 3 1 -10.7844 2.86064 18.5141 0 0 0 
65 2 1 -16.1466 -1.8872 22.1573 0 0 0 
66 3 1 -17.3491 -1.18228 25.7524 0 0 0 
78 3 1 -23.348 -11.2962 33.2843 0 0 0 
72 3 1 -25.338 -9.35998 27.8047 0 0 0 
71 2 1 -21.7104 -8.4196 27.3978 0 0 0 
76 1 1 -20.8486 -5.28299 33.3678 0 0 0 
70 1 1 -18.1411 -6.68665 26.3425 0 0 0 
73 1 1 -18.8948 -5.84286 30.0562 0 0 0 
74 2 1 -15.8716 -5.13578 32.6119 0 0 0 
77 2 1 -23.7097 -7.8506 34.2917 0 0 0 
83 2 1 -22.1375 -0.154837 42.3207 0 0 0 
79 1 1 -21.7019 -3.98843 36.9817 0 0 0 
82 1 1 -23.7317 -3.29715 40.2189 0 0 0 
80 2 1 -20.2433 -0.475986 38.1271 0 0 0 
81 3 1 -17.4436 1.02943 39.5029 0 0 0 
75 3 1 -15.0991 -3.3156 35.7288 0 0 0 
84 3 1 -18.9701 0.324948 44.2163 0 0 0 
ITEM: TIMESTEP
200000
ITEM: NUMBER OF ATOMS
84
ITEM: BOX BOUNDS pp pp pp
-136.647 136.647
-136.647 136.647
-136.647 136.647
ITEM: ATOMS id type mol x y z ix iy iz 
54 3 1 -24.2776 3.97539 -6.15733 0 0 0 
72 3 1 5.45183 5.18558 -6.02573 0 0 0 
18 3 1 7.80687 0.510359 -6.53201 0 0 0 
78 3 1 8.62717 -5.77161 -8.36752 0 0 0 
17 2 1 9.65891 1.17801 -3.44228 0 0 0 
8 2 1 22.0293 -3.75167 -1.05299 0 0 0 
9 3 1 24.0464 -2.80853 1.75568 0 0 0 
57 3 1 -20.2905 9.70162 -8.55821 0 0 0 
63 3 1 -8.80119 3.36349 -11.107 0 0 0 
15 3 1 16.9515 1.86019 4.48603 0 0 0 
30 3 1 2.08919 -1.922 10.2384 0 0 0 
12 3 1 12.6897 -7.72004 -4.31333 0 0 0 
11 2 1 14.5037 -4.61893 -4.73151 0 0 0 
77 2 1 8.58011 -4.16959 -4.79539 0 0 0 
4 1 1 23.8692 -6.94877 -6.96384 0 0 0 
7 1 1 21.2414 -5.14214 -4.82862 0 0 0 
6 3 1 16.8371 -7.09976 -9.73098 0 0 0 
5 2 1 19.9885 -8.12017 -7.67502 0 0 0 
1 1 1 27.4939 -7.72956 -7.8386 0 0 0 
2 2 1 27.8932 -3.8345 -6.26203 0 0 0 
3 3 1 28.607 -1.24823 -3.48204 0 0 0 
51 3 1 -26.7181 6.53411 1.59977 0 0 0 
52 1 1 -20.1168 4.03251 -0.916319 0 0 0 
50 2 1 -24.4248 3.53599 0.759673 0 0 0 
49 1 1 -21.1405 2.21072 2.36165 0 0 0 
47 2 1 -17.1187 1.15929 2.71391 0 0 0 
46 1 1 -19.9979 0.164414 5.46888 0 0 0 
53 2 1 -22.6135 6.05864 -3.44933 0 0 0 
48 3 1 -14.0375 3.41756 2.10857 0 0 0 
39 3 1 -13.8165 -3.53108 1.47864 0 0 0 
64 1 1 -6.05422 3.61004 -4.06083 0 0 0 
32 2 1 -7.24001 1.08476 2.5858 0 0 0 
33 3 1 -9.3192 1.41781 -0.288445 0 0 0 
69 3 1 -2.37717 -4.31056 2.04586 0 0 0 
67 1 1 -3.16781 1.68068 -2.39665 0 0 0 
70 1 1 0.672848 0.903305 -2.07637 0 0 0 
68 2 1 -2.7083 -1.08694 0.614258 0 0 0 
73 1 1 3.94432 -0.901774 -1.22578 0 0 0 
71 2 1 3.51923 2.59959 -4.52201 0 0 0 
28 1 1 -0.702611 1.04289 4.22941 0 0 0 
25 1 1 2.09887 3.11099 2.6835 0 0 0 
16 1 1 12.4518 0.730727 -0.564054 0 0 0 
19 1 1 9.4325 2.56071 1.28167 0 0 0 
13 1 1 15.5065 -1.22032 -1.73003 0 0 0 
74 2 1 5.23832 -0.951802 2.55211 0 0 0 
79 1 1 10.8679 -4.1853 -0.693779 0 0 0 
76 1 1 7.23168 -2.76667 -1.28535 0 0 0 
82 1 1 14.4745 -5.32018 0.257125 0 0 0 
14 2 1 15.9353 1.07018 1.05934 0 0 0 
22 1 1 5.8261 3.59206 1.78161 0 0 0 
80 2 1 12.6008 -2.55681 2.70666 0 0 0 
81 3 1 11.4298 -0.0711672 5.36795 0 0 0 
10 1 1 18.0689 -3.15614 -3.60126 0 0 0 
84 3 1 19.6268 -2.1936 4.62444 0 0 0 
83 2 1 17.6594 -3.58541 2.09926 0 0 0 
56 2 1 -17.8145 7.64413 -6.40244 0 0 0 
55 1 1 -17.3702 5.01748 -3.36514 0 0 0 
59 2 1 -12.3755 5.98887 -8.19354 0 0 0 
60 3 1 -11.8021 8.32743 -10.963 0 0 0 
58 1 1 -13.5952 5.04396 -4.47147 0 0 0 
61 1 1 -9.70674 4.66875 -4.89542 0 0 0 
62 2 1 -7.60044 5.4046 -8.33711 0 0 0 
65 2 1 -2.67099 5.05916 -5.98586 0 0 0 
66 3 1 0.205998 5.56757 -7.86597 0 0 0 
27 3 1 -3.28015 6.35532 -1.46103 0 0 0 
26 2 1 -1.45484 4.34297 1.13505 0 0 0 
24 3 1 3.01897 9.18543 -2.06221 0 0 0 
23 2 1 4.06064 6.0147 -0.975281 0 0 0 
21 3 1 9.96953 3.67098 8.57717 0 0 0 
20 2 1 8.74309 3.97476 5.04083 0 0 0 
45 3 1 -22.1935 -5.24155 11.7956 0 0 0 
44 2 1 -21.2422 -2.54905 9.50974 0 0 0 
41 2 1 -16.4421 -4.80169 11.7317 0 0 0 
42 3 1 -17.5666 -7.91853 13.7654 0 0 0 
36 3 1 -8.97083 -9.10299 7.38746 0 0 0 
43 1 1 -18.0411 -1.68249 8.22673 0 0 0 
38 2 1 -12.9102 -1.92245 4.90179 0 0 0 
40 1 1 -14.4091 -2.64964 9.08678 0 0 0 
37 1 1 -10.638 -2.57519 8.17815 0 0 0 
34 1 1 -7.03105 -2.16007 6.89689 0 0 0 
35 2 1 -7.52491 -5.74595 8.28804 0 0 0 
31 1 1 -4.21605 -0.141993 5.02817 0 0 0 
29 2 1 0.516817 -1.92214 6.91364 0 0 0 
75 3 1 6.06683 -0.0457 6.2241 0 0 0 
ITEM: TIMESTEP
300000
ITEM: NUMBER OF ATOMS
84
ITEM: BOX BOUNDS pp pp pp
-136.647 136.647
-136.647 136.647
-136.647 136.647
ITEM: ATOMS id type mol x y z ix iy iz 
42 3 1 -21.1696 -9.42491 -14.7774 0 0 0 
41 2 1 -19.1337 -7.49562 -12.2137 0 0 0 
37 1 1 -11.8965 -7.45187 -10.7626 0 0 0 
35 2 1 -8.44404 -10.6839 -12.8068 0 0 0 
36 3 1 -10.3949 -11.9334 -15.6625 0 0 0 
34 1 1 -8.11039 -8.03146 -9.61063 0 0 0 
31 1 1 -5.29358 -6.92189 -7.09063 0 0 0 
29 2 1 -2.57246 -8.59716 -3.6784 0 0 0 
28 1 1 -2.72623 -5.2045 -4.74538 0 0 0 
30 3 1 -0.908175 -11.641 -2.93578 0 0 0 
45 3 1 -24.5206 -2.62214 -8.57697 0 0 0 
44 2 1 -21.8159 -2.16784 -10.7959 0 0 0 
40 1 1 -15.4645 -6.11375 -11.2081 0 0 0 
43 1 1 -17.7631 -3.00997 -10.6995 0 0 0 
46 1 1 -17.3674 0.837837 -10.1512 0 0 0 
38 2 1 -12.757 -3.7562 -9.7255 0 0 0 
32 2 1 -6.88456 -3.74008 -8.99262 0 0 0 
47 2 1 -13.722 1.89886 -10.4788 0 0 0 
33 3 1 -8.44716 -0.295193 -8.71129 0 0 0 
48 3 1 -10.8186 4.42046 -10.1176 0 0 0 
39 3 1 -13.1769 -1.25456 -6.90585 0 0 0 
59 2 1 -7.9855 0.345336 -2.88111 0 0 0 
27 3 1 -5.20422 2.98682 -7.25055 0 0 0 
26 2 1 -3.63777 0.0520524 -5.99651 0 0 0 
50 2 1 -18.3611 8.19473 -9.49414 0 0 0 
51 3 1 -19.0267 11.2138 -10.8921 0 0 0 
49 1 1 -16.7906 4.46072 -9.17374 0 0 0 
52 1 1 -14.127 6.4038 -7.26707 0 0 0 
53 2 1 -13.0362 10.1964 -6.88145 0 0 0 
55 1 1 -10.9708 6.27682 -4.98781 0 0 0 
54 3 1 -10.5171 12.5442 -8.03651 0 0 0 
24 3 1 -0.84813 -6.74184 0.946183 0 0 0 
23 2 1 1.26159 -4.29286 -0.739204 0 0 0 
63 3 1 -3.68062 -3.7372 -0.162666 0 0 0 
58 1 1 -8.17358 4.40429 -2.96395 0 0 0 
60 3 1 -7.21516 -3.09181 -4.20553 0 0 0 
62 2 1 -3.82999 -0.2878 -0.992279 0 0 0 
61 1 1 -5.02095 3.31232 -0.948785 0 0 0 
25 1 1 -1.02417 -2.07477 -4.0078 0 0 0 
22 1 1 2.16308 -0.515651 -2.21455 0 0 0 
20 2 1 2.70061 4.58759 -3.03299 0 0 0 
64 1 1 -1.65734 3.34723 0.772807 0 0 0 
19 1 1 4.96108 1.80671 -1.10901 0 0 0 
67 1 1 1.92818 4.13103 2.02417 0 0 0 
65 2 1 -0.760526 0.743131 2.90115 0 0 0 
68 2 1 5.13809 6.53042 0.883656 0 0 0 
17 2 1 6.14043 -0.525864 1.99022 0 0 0 
21 3 1 0.314551 7.60629 -2.65998 0 0 0 
66 3 1 -1.52613 -2.21403 4.41802 0 0 0 
16 1 1 8.25236 2.48587 0.710487 0 0 0 
13 1 1 11.3362 2.24689 2.96849 0 0 0 
14 2 1 12.2002 5.75162 0.917587 0 0 0 
69 3 1 7.66333 7.94143 -0.94305 0 0 0 
56 2 1 -8.13156 8.96756 -4.60196 0 0 0 
57 3 1 -7.03992 12.386 -4.08024 0 0 0 
15 3 1 13.9396 7.83148 -1.65017 0 0 0 
12 3 1 8.99154 -5.25791 4.47034 0 0 0 
78 3 1 4.48183 -4.7659 12.5988 0 0 0 
6 3 1 11.4838 -8.66739 10.3308 0 0 0 
84 3 1 9.75542 -6.77305 20.2335 0 0 0 
70 1 1 4.85872 3.68874 4.50461 0 0 0 
18 3 1 4.32673 -2.38987 4.10059 0 0 0 
11 2 1 11.0572 -1.9719 4.42403 0 0 0 
77 2 1 7.32039 -3.01225 11.1543 0 0 0 
10 1 1 13.4727 0.998241 5.91299 0 0 0 
73 1 1 7.41669 2.09627 7.12951 0 0 0 
76 1 1 9.33065 -0.103964 9.77086 0 0 0 
79 1 1 11.7819 -1.25184 12.4756 0 0 0 
74 2 1 10.613 4.06474 8.55492 0 0 0 
80 2 1 15.2777 0.653779 13.2641 0 0 0 
8 2 1 16.0228 2.75568 8.59111 0 0 0 
5 2 1 12.782 -5.18084 10.3716 0 0 0 
7 1 1 15.0517 -0.674628 8.95631 0 0 0 
4 1 1 16.4417 -3.43291 11.3488 0 0 0 
1 1 1 19.1685 -4.76779 13.6112 0 0 0 
2 2 1 19.5794 -1.44885 15.9203 0 0 0 
71 2 1 8.15128 6.10099 4.48593 0 0 0 
72 3 1 9.88421 9.08781 4.94695 0 0 0 
75 3 1 12.7302 6.19977 10.5662 0 0 0 
3 3 1 20.5848 -1.32503 19.5984 0 0 0 
9 3 1 17.6654 6.14613 7.63578 0 0 0 
81 3 1 17.1984 3.95675 13.3886 0 0 0 
83 2 1 11.4738 -5.75523 17.2299 0 0 0 
82 1 1 13.8331 -3.35189 15.1057 0 0 0 
ITEM: TIMESTEP
400000
ITEM: NUMBER OF ATOMS
84
ITEM: BOX BOUNDS pp pp pp
-136.647 136.647
-136.647 136.647
-136.647 136.647
ITEM: ATOMS id type mol x y z ix iy iz 
42 3 1 -9.03826 -0.130976 -26.4259 0 0 0 
45 3 1 -15.8765 6.81598 -20.5322 0 0 0 
41 2 1 -8.49699 0.933974 -23.0882 0 0 0 
40 1 1 -6.67897 0.927439 -19.4064 0 0 0 
43 1 1 -9.74104 2.7579 -17.8732 0 0 0 
46 1 1 -11.152 3.97786 -14.4319 0 0 0 
44 2 1 -13.2154 4.80663 -18.66 0 0 0 
39 3 1 -8.74639 -2.15527 -13.7033 0 0 0 
38 2 1 -6.36477 -1.07954 -15.9111 0 0 0 
35 2 1 -0.269073 -3.71834 -20.3762 0 0 0 
37 1 1 -3.22024 -0.495565 -18.5621 0 0 0 
34 1 1 0.106672 -1.74662 -16.9128 0 0 0 
36 3 1 -2.08019 -5.5475 -23.0103 0 0 0 
30 3 1 9.74531 -3.44883 -10.0611 0 0 0 
51 3 1 -17.4688 7.01669 -6.4424 0 0 0 
50 2 1 -14.5928 6.388 -8.2793 0 0 0 
33 3 1 8.88572 -2.4149 -14.9778 0 0 0 
49 1 1 -11.6579 4.60816 -10.582 0 0 0 
47 2 1 -8.04906 3.15699 -11.9485 0 0 0 
48 3 1 -6.89146 0.55747 -9.80227 0 0 0 
55 1 1 -7.71869 1.97276 -5.08692 0 0 0 
52 1 1 -10.3663 4.00396 -7.03726 0 0 0 
53 2 1 -10.8305 5.2512 -3.17078 0 0 0 
58 1 1 -4.98057 -0.670207 -5.49375 0 0 0 
63 3 1 1.87808 -6.49656 -8.84813 0 0 0 
60 3 1 -2.38408 -4.4642 -11.5082 0 0 0 
32 2 1 5.47211 -2.8224 -16.07 0 0 0 
59 2 1 -3.8748 -3.16956 -8.50067 0 0 0 
31 1 1 2.32842 -1.68797 -13.7697 0 0 0 
28 1 1 2.49182 -0.942219 -9.90943 0 0 0 
26 2 1 -1.5198 0.923861 -8.25019 0 0 0 
25 1 1 1.72397 -0.0898906 -6.20604 0 0 0 
29 2 1 5.91231 -2.95615 -9.99813 0 0 0 
24 3 1 8.67477 0.437651 -6.61669 0 0 0 
27 3 1 -3.70633 3.97003 -7.8199 0 0 0 
66 3 1 7.59902 -5.52767 -2.89535 0 0 0 
56 2 1 -6.09275 1.65584 -1.39962 0 0 0 
62 2 1 0.463332 -4.99905 -5.63547 0 0 0 
65 2 1 4.23037 -5.15693 -1.21033 0 0 0 
61 1 1 -2.18814 -2.5923 -3.64721 0 0 0 
64 1 1 0.434477 -3.56651 -0.879505 0 0 0 
20 2 1 -0.47621 2.12336 0.660798 0 0 0 
67 1 1 1.97353 -4.12724 2.57129 0 0 0 
22 1 1 2.95691 -0.0370084 -2.53275 0 0 0 
21 3 1 -2.22922 5.01758 -0.151233 0 0 0 
18 3 1 10.2531 -3.94971 2.84537 0 0 0 
19 1 1 3.2096 0.403051 1.30364 0 0 0 
23 2 1 5.70406 -1.08265 -5.40673 0 0 0 
17 2 1 6.95532 -2.57892 3.24314 0 0 0 
54 3 1 -10.2748 6.8364 0.301799 0 0 0 
57 3 1 -6.35831 1.83526 2.44829 0 0 0 
72 3 1 8.18757 -8.90618 8.95248 0 0 0 
78 3 1 9.22414 -6.80178 17.2584 0 0 0 
14 2 1 1.54454 3.75488 6.73002 0 0 0 
68 2 1 -0.562084 -2.56798 5.29505 0 0 0 
70 1 1 3.00578 -4.13389 6.27502 0 0 0 
73 1 1 3.2562 -3.27895 9.9442 0 0 0 
74 2 1 0.69905 -0.291 11.0585 0 0 0 
76 1 1 4.09709 -2.50425 13.7483 0 0 0 
71 2 1 6.22355 -5.81847 7.8575 0 0 0 
69 3 1 -2.66501 0.300415 5.621 0 0 0 
75 3 1 -1.54978 1.59826 13.036 0 0 0 
12 3 1 10.3812 -3.59052 8.99843 0 0 0 
16 1 1 4.56414 0.31324 4.91613 0 0 0 
13 1 1 4.47194 1.59544 8.53506 0 0 0 
10 1 1 5.94563 1.32963 11.9486 0 0 0 
11 2 1 7.92698 -1.21482 9.62141 0 0 0 
77 2 1 7.58626 -4.37854 14.8228 0 0 0 
15 3 1 2.31085 7.23775 5.33763 0 0 0 
9 3 1 0.664552 6.40974 13.2536 0 0 0 
6 3 1 12.1308 -2.78203 18.6922 0 0 0 
80 2 1 1.74887 1.31314 18.5297 0 0 0 
79 1 1 4.31278 -1.64445 17.4103 0 0 0 
81 3 1 -1.2204 3.74578 17.9572 0 0 0 
8 2 1 2.94623 3.9226 14.1028 0 0 0 
7 1 1 6.20156 2.07147 15.7497 0 0 0 
2 2 1 4.19625 6.35065 21.2667 0 0 0 
1 1 1 5.7538 3.24066 23.4541 0 0 0 
82 1 1 4.7682 -1.78316 21.2392 0 0 0 
4 1 1 6.58585 2.25024 19.6442 0 0 0 
5 2 1 9.41267 -0.328555 18.333 0 0 0 
3 3 1 2.11956 7.42109 18.7374 0 0 0 
83 2 1 1.97941 -0.177679 23.7861 0 0 0 
84 3 1 -1.16596 -1.55104 23.5925 0 0 0 
ITEM: TIMESTEP
500000
ITEM: NUMBER OF ATOMS
84
ITEM: BOX BOUNDS pp pp pp
-136.647 136.647
-136.647 136.647
-136.647 136.647
ITEM: ATOMS id type mol x y z ix iy iz 
45 3 1 -9.53011 4.03919 -25.5011 0 0 0 
42 3 1 -1.80266 4.70344 -27.3707 0 0 0 
51 3 1 -13.0258 -9.07081 -15.4377 0 0 0 
50 2 1 -10.4484 -6.19497 -15.5556 0 0 0 
47 2 1 -10.9135 -2.05543 -20.3853 0 0 0 
46 1 1 -7.14638 -1.06625 -19.2604 0 0 0 
49 1 1 -7.79617 -3.53387 -16.3346 0 0 0 
48 3 1 -14.3143 -3.53716 -19.4441 0 0 0 
44 2 1 -7.33523 2.37752 -23.41 0 0 0 
41 2 1 -1.76026 4.76053 -23.6038 0 0 0 
43 1 1 -4.49079 1.32489 -20.4941 0 0 0 
40 1 1 -0.810866 2.78926 -20.1299 0 0 0 
37 1 1 2.4575 2.57048 -17.9913 0 0 0 
38 2 1 -1.10948 1.46326 -16.401 0 0 0 
35 2 1 7.58389 3.90596 -17.4477 0 0 0 
36 3 1 10.9189 4.53634 -18.398 0 0 0 
33 3 1 13.3125 -0.0594288 -15.3204 0 0 0 
53 2 1 -8.09946 -8.52209 -11.594 0 0 0 
54 3 1 -10.8622 -10.6553 -11.0424 0 0 0 
56 2 1 -5.605 -6.9986 -6.47391 0 0 0 
55 1 1 -4.53657 -5.11676 -9.7161 0 0 0 
59 2 1 1.75361 -5.57474 -8.11962 0 0 0 
60 3 1 5.18201 -5.49193 -9.87849 0 0 0 
52 1 1 -6.63591 -5.03496 -12.8928 0 0 0 
39 3 1 -3.83903 1.54626 -14.1981 0 0 0 
58 1 1 -1.90518 -4.59813 -6.88059 0 0 0 
27 3 1 -0.872205 0.959934 -10.1037 0 0 0 
26 2 1 1.46873 0.484832 -7.20933 0 0 0 
34 1 1 5.13133 2.06673 -15.1826 0 0 0 
28 1 1 6.39934 0.33444 -8.10539 0 0 0 
31 1 1 6.85949 1.03681 -11.9693 0 0 0 
32 2 1 9.94828 1.1661 -14.5019 0 0 0 
29 2 1 10.0542 -1.41452 -8.70448 0 0 0 
30 3 1 12.0339 -4.50608 -8.26697 0 0 0 
57 3 1 -7.61306 -9.40812 -4.48305 0 0 0 
62 2 1 3.88209 -3.78232 -2.9214 0 0 0 
61 1 1 0.0201313 -3.83002 -3.75428 0 0 0 
21 3 1 -1.69023 1.93557 -3.30927 0 0 0 
25 1 1 4.66983 0.638883 -4.56064 0 0 0 
20 2 1 0.10952 1.93498 0.00544893 0 0 0 
64 1 1 0.382521 -3.01542 -0.0674821 0 0 0 
67 1 1 -0.215432 -2.49889 3.74075 0 0 0 
19 1 1 2.90595 2.43124 2.73553 0 0 0 
22 1 1 4.39072 1.46694 -0.720738 0 0 0 
65 2 1 3.87321 -2.53103 1.6893 0 0 0 
68 2 1 -3.67476 -0.449124 4.71918 0 0 0 
69 3 1 -4.50028 2.28974 2.65253 0 0 0 
63 3 1 7.33388 -4.18063 -4.5125 0 0 0 
66 3 1 7.47708 -2.41872 1.83196 0 0 0 
23 2 1 8.20099 0.511553 -2.0364 0 0 0 
24 3 1 11.6759 0.70566 -3.43718 0 0 0 
72 3 1 5.04184 -6.40668 11.7857 0 0 0 
75 3 1 -6.21341 1.45422 14.1482 0 0 0 
74 2 1 -3.7461 0.617641 11.7666 0 0 0 
70 1 1 0.555852 -2.19439 7.52895 0 0 0 
73 1 1 -0.282535 -1.46637 11.0677 0 0 0 
13 1 1 1.2964 3.75409 10.0633 0 0 0 
10 1 1 1.1419 3.9589 13.8959 0 0 0 
16 1 1 2.51951 3.02143 6.53675 0 0 0 
76 1 1 -0.342711 -1.045 15.0182 0 0 0 
11 2 1 4.50794 1.66558 12.876 0 0 0 
71 2 1 3.4518 -3.90114 9.91994 0 0 0 
14 2 1 -2.34018 4.40257 8.54225 0 0 0 
17 2 1 6.32052 1.79201 5.69622 0 0 0 
18 3 1 7.99462 -0.0338509 8.4243 0 0 0 
12 3 1 6.54236 -1.56059 13.0293 0 0 0 
9 3 1 -5.45605 6.27163 13.0399 0 0 0 
15 3 1 -4.94254 6.8026 7.31691 0 0 0 
8 2 1 -2.58975 6.40319 15.086 0 0 0 
80 2 1 -3.75237 2.817 18.7846 0 0 0 
7 1 1 -0.0165885 4.52379 17.4946 0 0 0 
79 1 1 -1.56243 -0.421243 18.6618 0 0 0 
82 1 1 -2.69463 -0.815795 22.2144 0 0 0 
83 2 1 -4.15819 1.90131 24.908 0 0 0 
4 1 1 0.502272 3.81041 21.168 0 0 0 
5 2 1 2.9523 1.05817 19.4374 0 0 0 
1 1 1 0.322461 4.04202 25.1999 0 0 0 
77 2 1 2.1584 -2.98474 17.6793 0 0 0 
78 3 1 4.94003 -4.84156 18.9005 0 0 0 
6 3 1 6.3341 1.01017 17.9792 0 0 0 
81 3 1 -4.75716 6.57681 19.1554 0 0 0 
2 2 1 -2.38549 6.99299 24.2429 0 0 0 
3 3 1 -3.55551 10.2837 24.0673 0 0 0 
84 3 1 -6.30499 3.30718 27.6356 0 0 0 
ITEM: TIMESTEP
600000
ITEM: NUMBER OF ATOMS
84
ITEM: BOX BOUNDS pp pp pp
-136.647 136.647
-136.647 136.647
-136.647 136.647
ITEM: ATOMS id type mol x y z ix iy iz 
45 3 1 5.06155 -10.7001 -25.6598 0 0 0 
48 3 1 0.109392 -15.1319 -22.6545 0 0 0 
51 3 1 -9.50646 -12.5951 -14.8453 0 0 0 
50 2 1 -6.31353 -11.4138 -16.5954 0 0 0 
47 2 1 -0.992658 -12.8036 -20.236 0 0 0 
44 2 1 3.51314 -10.1481 -22.228 0 0 0 
46 1 1 0.511376 -9.18757 -18.8666 0 0 0 
49 1 1 -2.89946 -9.37178 -16.8385 0 0 0 
43 1 1 3.81686 -7.43766 -19.5023 0 0 0 
40 1 1 6.0192 -4.76418 -18.0193 0 0 0 
38 2 1 3.14328 -2.81538 -16.0971 0 0 0 
39 3 1 -0.340367 -4.08152 -15.5748 0 0 0 
42 3 1 12.247 -6.12144 -21.7705 0 0 0 
41 2 1 8.56751 -6.16149 -20.9718 0 0 0 
36 3 1 13.0028 3.58569 -15.2315 0 0 0 
37 1 1 7.17621 -2.16816 -15.5486 0 0 0 
35 2 1 10.7625 1.23549 -14.1038 0 0 0 
53 2 1 -8.3315 -8.20059 -11.9141 0 0 0 
54 3 1 -10.447 -9.86018 -9.25774 0 0 0 
52 1 1 -4.87919 -7.98853 -13.8227 0 0 0 
56 2 1 -7.39983 -3.52657 -9.03443 0 0 0 
55 1 1 -4.42156 -5.66067 -10.7271 0 0 0 
58 1 1 -1.6985 -3.84708 -8.47333 0 0 0 
27 3 1 -4.31708 1.13527 -7.01731 0 0 0 
26 2 1 -1.4781 1.61037 -5.1714 0 0 0 
59 2 1 1.9491 -3.81618 -9.89386 0 0 0 
33 3 1 -1.18519 0.37368 -13.7025 0 0 0 
32 2 1 2.34868 1.02754 -12.5641 0 0 0 
60 3 1 5.10896 -4.97233 -10.7486 0 0 0 
34 1 1 7.34435 0.361188 -12.7511 0 0 0 
31 1 1 5.20191 1.5032 -9.69712 0 0 0 
28 1 1 3.77513 2.66593 -6.29381 0 0 0 
29 2 1 7.60389 3.28226 -5.93881 0 0 0 
30 3 1 10.452 5.31411 -5.67848 0 0 0 
57 3 1 -9.8284 -0.802889 -7.87374 0 0 0 
18 3 1 -4.60816 9.14033 1.29922 0 0 0 
61 1 1 0.449875 -2.56621 -5.55219 0 0 0 
67 1 1 1.51844 -0.331492 1.61706 0 0 0 
64 1 1 1.7958 -1.10329 -2.20111 0 0 0 
19 1 1 -0.0961932 5.21374 3.85337 0 0 0 
17 2 1 -4.2137 7.92566 4.59868 0 0 0 
68 2 1 -1.6984 1.31932 2.12606 0 0 0 
22 1 1 0.968119 4.91996 0.304471 0 0 0 
25 1 1 1.6043 3.61993 -3.3532 0 0 0 
66 3 1 8.62768 0.972085 -1.19893 0 0 0 
65 2 1 5.13665 0.348264 -1.37712 0 0 0 
62 2 1 4.27628 -1.68882 -6.65199 0 0 0 
63 3 1 7.71793 -1.61063 -6.21537 0 0 0 
23 2 1 4.88529 5.75933 -0.130516 0 0 0 
24 3 1 8.63162 6.42386 0.657662 0 0 0 
20 2 1 4.06513 4.77409 4.18992 0 0 0 
21 3 1 6.82951 2.62512 3.6302 0 0 0 
69 3 1 -4.3778 3.55896 1.661 0 0 0 
75 3 1 -7.76098 3.90461 10.205 0 0 0 
74 2 1 -4.32694 2.25787 9.72855 0 0 0 
16 1 1 -1.91297 5.8172 7.27976 0 0 0 
70 1 1 0.688408 0.46196 5.34777 0 0 0 
73 1 1 -0.899312 0.269723 8.82054 0 0 0 
71 2 1 3.56796 0.0921687 8.20509 0 0 0 
13 1 1 -2.29694 5.69536 11.2047 0 0 0 
76 1 1 -2.01442 0.101271 12.55 0 0 0 
11 2 1 1.43458 3.13436 13.2142 0 0 0 
72 3 1 5.53103 -2.5985 9.67111 0 0 0 
15 3 1 -8.2578 9.34334 9.20363 0 0 0 
6 3 1 -7.29174 9.77966 18.0956 0 0 0 
14 2 1 -4.92775 8.62856 10.4454 0 0 0 
10 1 1 -1.73066 4.91366 15.0696 0 0 0 
78 3 1 1.7036 -1.29201 18.5744 0 0 0 
81 3 1 -8.82211 6.94817 14.8516 0 0 0 
82 1 1 -6.41351 0.339829 18.557 0 0 0 
79 1 1 -4.4886 0.840685 15.2962 0 0 0 
12 3 1 5.01168 2.83528 12.7155 0 0 0 
77 2 1 -0.391735 -0.975927 15.6731 0 0 0 
8 2 1 1.73436 4.66569 18.3131 0 0 0 
9 3 1 5.25093 4.76227 18.075 0 0 0 
83 2 1 -6.79079 2.48306 21.5471 0 0 0 
84 3 1 -9.85673 3.92529 22.6536 0 0 0 
5 2 1 -4.98815 7.89166 19.8131 0 0 0 
4 1 1 -3.46674 5.3245 22.4579 0 0 0 
80 2 1 -7.38371 3.47618 15.8276 0 0 0 
1 1 1 -4.64571 5.37676 26.1606 0 0 0 
7 1 1 -1.8068 4.9639 18.9371 0 0 0 
2 2 1 -2.70189 1.71231 26.16 0 0 0 
3 3 1 -4.43872 -1.09682 28.1944 0 0 0 
ITEM: TIMESTEP
700000
ITEM: NUMBER OF ATOMS
84
ITEM: BOX BOUNDS pp pp pp
-136.647 136.647
-136.647 136.647
-136.647 136.647
ITEM: ATOMS id type mol x y z ix iy iz 
45 3 1 -5.47244 -1.52228 -26.387 0 0 0 
42 3 1 5.17994 0.348289 -26.9534 0 0 0 
51 3 1 -9.79035 -8.9955 -13.9257 0 0 0 
50 2 1 -6.65178 -7.54098 -13.6313 0 0 0 
48 3 1 -8.02434 -9.61034 -21.7646 0 0 0 
44 2 1 -2.83873 -2.35113 -23.8502 0 0 0 
47 2 1 -5.92626 -7.06185 -19.8527 0 0 0 
49 1 1 -3.44942 -5.74621 -15.2978 0 0 0 
46 1 1 -2.77282 -4.5626 -18.8758 0 0 0 
43 1 1 -0.368538 -2.02146 -20.7828 0 0 0 
38 2 1 0.956175 1.52572 -16.7501 0 0 0 
41 2 1 2.85174 -0.221091 -24.2731 0 0 0 
40 1 1 2.93535 -0.13102 -20.1348 0 0 0 
37 1 1 5.06754 1.12076 -17.1766 0 0 0 
35 2 1 9.84257 1.98695 -16.5503 0 0 0 
36 3 1 10.8056 -1.64807 -17.2015 0 0 0 
53 2 1 -3.19542 -7.6208 -8.69917 0 0 0 
57 3 1 -3.23363 -2.8912 -2.74191 0 0 0 
56 2 1 -1.79418 -4.39307 -5.41774 0 0 0 
54 3 1 -6.29011 -9.34809 -7.01397 0 0 0 
39 3 1 -2.32065 2.04093 -15.3982 0 0 0 
52 1 1 -1.96668 -5.51645 -11.8683 0 0 0 
55 1 1 0.217195 -5.0283 -8.81299 0 0 0 
33 3 1 0.599466 -1.38799 -11.5782 0 0 0 
58 1 1 3.05153 -4.2388 -6.35164 0 0 0 
32 2 1 3.66842 0.30505 -11.4544 0 0 0 
27 3 1 0.242232 0.25391 -6.90758 0 0 0 
26 2 1 2.87622 1.3685 -4.83106 0 0 0 
59 2 1 6.5515 -2.92677 -7.60417 0 0 0 
28 1 1 6.5503 3.99471 -6.31062 0 0 0 
34 1 1 6.71729 2.16656 -13.8537 0 0 0 
31 1 1 6.5064 2.82827 -10.0226 0 0 0 
60 3 1 10.0569 -2.28506 -7.17446 0 0 0 
29 2 1 9.17207 6.30374 -8.1119 0 0 0 
30 3 1 10.5321 9.75013 -8.08693 0 0 0 
18 3 1 -0.255664 0.0833841 0.219673 0 0 0 
17 2 1 0.545086 1.24557 3.77762 0 0 0 
61 1 1 4.634 -2.98009 -3.12327 0 0 0 
67 1 1 4.08109 -1.19078 4.3758 0 0 0 
64 1 1 4.85511 -1.91254 0.655643 0 0 0 
19 1 1 3.33353 4.9132 4.70438 0 0 0 
22 1 1 4.70295 4.51563 1.05593 0 0 0 
25 1 1 5.1421 3.65011 -2.65687 0 0 0 
65 2 1 8.03515 0.50331 1.40374 0 0 0 
62 2 1 8.27825 -0.736754 -3.28132 0 0 0 
63 3 1 10.9032 2.01264 -4.09463 0 0 0 
23 2 1 7.60343 5.90763 -1.14805 0 0 0 
24 3 1 10.9169 7.99113 -1.08538 0 0 0 
66 3 1 10.0285 2.55404 4.03248 0 0 0 
21 3 1 10.692 7.27157 4.2726 0 0 0 
69 3 1 -2.2642 -4.53211 4.31118 0 0 0 
15 3 1 -5.52654 -0.565504 3.99093 0 0 0 
75 3 1 -7.17014 -2.98217 10.0517 0 0 0 
14 2 1 -3.48456 0.998008 6.31225 0 0 0 
9 3 1 -8.74928 2.55671 8.3518 0 0 0 
8 2 1 -8.78372 2.79164 11.9488 0 0 0 
68 2 1 0.726173 -3.21289 5.36917 0 0 0 
74 2 1 -3.41064 -2.29623 10.7373 0 0 0 
10 1 1 -4.31054 3.08493 12.9315 0 0 0 
13 1 1 -2.31859 3.00293 9.63514 0 0 0 
16 1 1 0.543893 3.78184 7.03138 0 0 0 
70 1 1 2.66365 -0.70393 7.8913 0 0 0 
73 1 1 0.419149 -0.996253 11.2154 0 0 0 
71 2 1 4.03493 2.30822 10.1816 0 0 0 
76 1 1 -1.20272 -1.25945 14.6099 0 0 0 
11 2 1 -0.94542 4.45356 14.3477 0 0 0 
12 3 1 2.52286 4.31608 15.3737 0 0 0 
72 3 1 6.28476 4.97348 11.1817 0 0 0 
20 2 1 6.98375 7.08229 4.69566 0 0 0 
81 3 1 -10.5522 -1.12773 13.8799 0 0 0 
80 2 1 -7.62752 -2.35488 15.3095 0 0 0 
83 2 1 -10.3075 -2.38176 21.277 0 0 0 
3 3 1 -14.5317 3.47032 14.2419 0 0 0 
2 2 1 -14.0898 2.27232 17.6503 0 0 0 
1 1 1 -12.4167 3.03338 21.2272 0 0 0 
84 3 1 -13.7234 -3.35311 21.4024 0 0 0 
7 1 1 -7.03511 2.81154 15.6415 0 0 0 
4 1 1 -9.38799 2.65517 18.9386 0 0 0 
82 1 1 -6.39126 -2.6154 19.8656 0 0 0 
77 2 1 0.638838 -0.468615 18.1912 0 0 0 
79 1 1 -4.07551 -1.711 17.1137 0 0 0 
5 2 1 -5.73804 1.92287 19.9589 0 0 0 
78 3 1 2.67787 2.35134 20.007 0 0 0 
6 3 1 -2.33363 1.0275 21.3061 0 0 0 
ITEM: TIMESTEP
800000
ITEM: NUMBER OF ATOMS
84
ITEM: BOX BOUNDS pp pp pp
-136.647 136.647
-136.647 136.647
-136.647 136.647
ITEM: ATOMS id type mol x y z ix iy iz 
42 3 1 4.90522 3.15956 -27.5787 0 0 0 
46 1 1 -1.55007 2.45605 -17.0677 0 0 0 
43 1 1 1.09686 2.37806 -19.847 0 0 0 
44 2 1 -1.79808 3.94841 -21.9166 0 0 0 
40 1 1 4.72728 1.33914 -20.2799 0 0 0 
41 2 1 3.81466 2.39983 -24.03 0 0 0 
38 2 1 9.49211 -0.792772 -21.6733 0 0 0 
37 1 1 7.88052 0.600405 -18.2359 0 0 0 
35 2 1 12.3496 0.213833 -17.0539 0 0 0 
39 3 1 11.7281 -3.35366 -23.4533 0 0 0 
34 1 1 9.69388 0.587869 -14.7899 0 0 0 
36 3 1 15.5696 -1.22815 -17.8979 0 0 0 
48 3 1 -6.59729 -0.248681 -20.2568 0 0 0 
45 3 1 -0.760845 6.93011 -24.0607 0 0 0 
47 2 1 -5.41065 1.96405 -17.5173 0 0 0 
51 3 1 -8.28095 4.50137 -10.7315 0 0 0 
33 3 1 2.8907 0.651668 -14.9977 0 0 0 
49 1 1 -2.05041 2.72794 -13.2583 0 0 0 
53 2 1 -1.63016 3.04854 -5.74255 0 0 0 
52 1 1 -0.934488 2.0272 -9.5689 0 0 0 
55 1 1 1.37233 -0.0116694 -7.23973 0 0 0 
27 3 1 3.14349 5.13919 -10.5348 0 0 0 
56 2 1 4.98508 -0.937444 -8.46264 0 0 0 
57 3 1 7.1483 -3.72445 -9.73339 0 0 0 
26 2 1 3.69896 3.78443 -6.95489 0 0 0 
29 2 1 11.0998 -1.38347 -6.70976 0 0 0 
32 2 1 6.04047 1.4805 -13.2969 0 0 0 
31 1 1 9.43272 0.967187 -10.9366 0 0 0 
28 1 1 8.23412 1.46204 -7.20082 0 0 0 
30 3 1 13.733 -3.82089 -8.04488 0 0 0 
50 2 1 -4.89607 4.87917 -11.346 0 0 0 
63 3 1 8.74592 -5.44036 2.54389 0 0 0 
60 3 1 10.2465 -3.64428 -2.56579 0 0 0 
24 3 1 13.2306 3.2473 -1.11245 0 0 0 
15 3 1 -4.2619 5.71103 4.62285 0 0 0 
58 1 1 3.09144 -1.52064 -4.16803 0 0 0 
18 3 1 -1.97131 2.0298 -0.38055 0 0 0 
61 1 1 2.57475 -2.13756 -0.343385 0 0 0 
64 1 1 1.15349 -2.8625 3.27249 0 0 0 
17 2 1 0.680018 1.81557 2.46401 0 0 0 
19 1 1 4.38168 1.68321 3.09662 0 0 0 
14 2 1 -2.76047 2.4755 5.935 0 0 0 
16 1 1 2.0484 1.20105 6.1326 0 0 0 
59 2 1 6.68743 -3.60527 -3.7914 0 0 0 
62 2 1 5.96307 -3.04423 1.57683 0 0 0 
22 1 1 6.17899 2.07059 -0.330019 0 0 0 
25 1 1 6.25342 2.33281 -4.15568 0 0 0 
23 2 1 10.1231 1.62098 -1.46467 0 0 0 
20 2 1 8.37286 2.15377 4.19528 0 0 0 
54 3 1 -3.06471 6.00638 -4.01425 0 0 0 
81 3 1 -13.6887 5.44118 7.9798 0 0 0 
80 2 1 -12.8256 3.22344 10.9672 0 0 0 
69 3 1 -6.4798 -0.104464 3.56734 0 0 0 