ITEM: TIMESTEP
0
ITEM: NUMBER OF ATOMS
90
ITEM: BOX BOUNDS pp pp pp
-139.825 139.825
-139.825 139.825
-139.825 139.825
ITEM: ATOMS id type mol x y z ix iy iz 
1 1 1 -8.54381 -10.1871 -51.534 0 0 0 
2 2 1 -11.9333 -10.2456 -49.6627 0 0 0 
3 3 1 -15.3794 -10.9515 -48.4205 0 0 0 
4 1 1 -7.95828 -9.45196 -48.0156 0 0 0 
5 2 1 -4.43081 -10.3911 -48.9133 0 0 0 
6 3 1 -0.843596 -11.362 -48.0881 0 0 0 
7 1 1 -7.37275 -8.7168 -44.4972 0 0 0 
8 2 1 -10.7623 -8.77528 -42.6259 0 0 0 
9 3 1 -14.2083 -9.4812 -41.3836 0 0 0 
10 1 1 -6.78722 -7.98163 -40.9788 0 0 0 
13 1 1 -6.20169 -7.24647 -37.4604 0 0 0 
11 2 1 -3.25975 -8.92082 -41.8765 0 0 0 
12 3 1 0.327464 -9.89168 -41.0513 0 0 0 
14 2 1 -9.59121 -7.30495 -35.5891 0 0 0 
15 3 1 -13.0373 -8.01088 -34.3468 0 0 0 
16 1 1 -5.61616 -6.51131 -33.942 0 0 0 
20 2 1 -8.42014 -5.83463 -28.5523 0 0 0 
21 3 1 -11.8662 -6.54055 -27.31 0 0 0 
17 2 1 -2.08869 -7.45049 -34.8397 0 0 0 
18 3 1 1.49853 -8.42135 -34.0145 0 0 0 
19 1 1 -5.03063 -5.77614 -30.4236 0 0 0 
23 2 1 -0.91763 -5.98017 -27.8029 0 0 0 
24 3 1 2.66959 -6.95103 -26.9778 0 0 0 
22 1 1 -4.4451 -5.04098 -26.9052 0 0 0 
30 3 1 3.84065 -5.4807 -19.9409 0 0 0 
26 2 1 -7.24908 -4.3643 -21.5155 0 0 0 
27 3 1 -10.6951 -5.07022 -20.2732 0 0 0 
25 1 1 -3.85956 -4.30582 -23.3868 0 0 0 
28 1 1 -3.27403 -3.57065 -19.8684 0 0 0 
29 2 1 0.253431 -4.50984 -20.7661 0 0 0 
31 1 1 -2.6885 -2.83549 -16.35 0 0 0 
32 2 1 -6.07802 -2.89397 -14.4787 0 0 0 
33 3 1 -9.52409 -3.5999 -13.2364 0 0 0 
39 3 1 -8.35303 -2.12957 -6.19964 0 0 0 
34 1 1 -2.10297 -2.10033 -12.8316 0 0 0 
35 2 1 1.42449 -3.03951 -13.7293 0 0 0 
36 3 1 5.01171 -4.01037 -12.9041 0 0 0 
37 1 1 -1.51744 -1.36516 -9.31319 0 0 0 
38 2 1 -4.90696 -1.42365 -7.44193 0 0 0 
40 1 1 -0.931911 -0.629998 -5.79479 0 0 0 
41 2 1 2.59555 -1.56918 -6.69249 0 0 0 
42 3 1 6.18277 -2.54004 -5.86735 0 0 0 
45 3 1 -7.18197 -0.659241 0.837158 0 0 0 
43 1 1 -0.34638 0.105164 -2.27638 0 0 0 
44 2 1 -3.7359 0.046681 -0.405124 0 0 0 
46 1 1 0.23915 0.840328 1.24202 0 0 0 
47 2 1 3.76661 -0.098857 0.344313 0 0 0 
49 1 1 0.82468 1.57549 4.76042 0 0 0 
48 3 1 7.35383 -1.06972 1.16945 0 0 0 
51 3 1 -6.01091 0.811085 7.87396 0 0 0 
50 2 1 -2.56484 1.51701 6.63168 0 0 0 
52 1 1 1.41021 2.31066 8.27882 0 0 0 
53 2 1 4.93768 1.37147 7.38111 0 0 0 
55 1 1 1.99574 3.04582 11.7972 0 0 0 
56 2 1 -1.39377 2.98733 13.6685 0 0 0 
57 3 1 -4.83985 2.28141 14.9108 0 0 0 
58 1 1 2.58127 3.78098 15.3156 0 0 0 
54 3 1 8.52489 0.400609 8.20626 0 0 0 
59 2 1 6.10874 2.8418 14.4179 0 0 0 
60 3 1 9.69595 1.87094 15.2431 0 0 0 
61 1 1 3.1668 4.51615 18.834 0 0 0 
62 2 1 -0.222713 4.45766 20.7053 0 0 0 
63 3 1 -3.66878 3.75174 21.9476 0 0 0 
65 2 1 7.2798 4.31212 21.4547 0 0 0 
66 3 1 10.867 3.34126 22.2798 0 0 0 
64 1 1 3.75233 5.25131 22.3524 0 0 0 
67 1 1 4.33786 5.98647 25.8708 0 0 0 
72 3 1 12.0381 4.81159 29.3167 0 0 0 
68 2 1 0.948347 5.92799 27.7421 0 0 0 
69 3 1 -2.49772 5.22207 28.9844 0 0 0 
70 1 1 4.9234 6.72164 29.3892 0 0 0 
74 2 1 2.11941 7.39832 34.7789 0 0 0 
75 3 1 -1.32666 6.69239 36.0212 0 0 0 
71 2 1 8.45086 5.78245 28.4915 0 0 0 
73 1 1 5.50893 7.4568 32.9076 0 0 0 
77 2 1 9.62192 7.25278 35.5283 0 0 0 
80 2 1 3.29047 8.86864 41.8157 0 0 0 
81 3 1 -0.155599 8.16272 43.058 0 0 0 
76 1 1 6.09446 8.19196 36.426 0 0 0 
78 3 1 13.2091 6.28192 36.3535 0 0 0 
79 1 1 6.67999 8.92713 39.9444 0 0 0 
82 1 1 7.26552 9.66229 43.4628 0 0 0 
83 2 1 10.793 8.72311 42.5651 0 0 0 
84 3 1 14.3802 7.75224 43.3903 0 0 0 
86 2 1 4.46153 10.339 48.8525 0 0 0 
87 3 1 1.01546 9.63305 50.0948 0 0 0 
85 1 1 7.85105 10.3974 46.9812 0 0 0 
88 1 1 8.43658 11.1326 50.4996 0 0 0 
89 2 1 11.964 10.1934 49.6019 0 0 0 
90 3 1 15.5513 9.22257 50.4271 0 0 0 
ITEM: TIMESTEP
100000
ITEM: NUMBER OF ATOMS
90
ITEM: BOX BOUNDS pp pp pp
-139.825 139.825
-139.825 139.825
-139.825 139.825
ITEM: ATOMS id type mol x y z ix iy iz 
23 2 1 16.2841 -5.35917 -22.4998 0 0 0 
20 2 1 21.0191 -9.30632 -23.6581 0 0 0 
21 3 1 20.9952 -11.5781 -26.8562 0 0 0 
27 3 1 19.3936 2.72168 -17.3449 0 0 0 
24 3 1 16.6717 -4.23546 -25.7058 0 0 0 
10 1 1 27.9745 -18.7145 -18.6467 0 0 0 
12 3 1 27.2633 -16.1287 -25.5041 0 0 0 
11 2 1 27.4892 -16.9086 -21.7176 0 0 0 
5 2 1 32.9289 -25.6349 -15.6133 0 0 0 
6 3 1 33.8984 -27.3252 -12.6829 0 0 0 
33 3 1 4.75485 -7.70492 -15.0524 0 0 0 
25 1 1 16.2622 -4.26094 -17.7982 0 0 0 
32 2 1 6.37399 -4.73241 -16.3074 0 0 0 
14 2 1 25.9509 -14.6489 -14.5805 0 0 0 
18 3 1 26.6528 -7.59236 -13.0298 0 0 0 
13 1 1 26.2111 -15.335 -18.0164 0 0 0 
16 1 1 24.1264 -12.1545 -18.3891 0 0 0 
22 1 1 18.8391 -6.72809 -19.6243 0 0 0 
17 2 1 24.8328 -9.42641 -15.3657 0 0 0 
19 1 1 21.8489 -9.29858 -19.7023 0 0 0 
39 3 1 -2.88677 -4.13281 -17.4123 0 0 0 
26 2 1 17.8501 -0.679972 -16.7484 0 0 0 
28 1 1 12.9304 -2.69497 -16.8881 0 0 0 
34 1 1 6.06957 0.18776 -15.008 0 0 0 
31 1 1 9.16833 -1.80785 -16.1714 0 0 0 
30 3 1 13.1478 4.40264 -15.1234 0 0 0 
29 2 1 12.2086 0.794011 -15.9458 0 0 0 
2 2 1 32.467 -23.873 -23.8389 0 0 0 
3 3 1 32.2366 -20.8167 -22.3864 0 0 0 
9 3 1 33.2957 -18.0647 -14.012 0 0 0 
8 2 1 30.2075 -20.2709 -14.8096 0 0 0 
4 1 1 31.5342 -25.2969 -19.5305 0 0 0 
7 1 1 29.8103 -21.9761 -18.3447 0 0 0 
1 1 1 32.0084 -27.695 -22.4929 0 0 0 
15 3 1 29.5167 -14.0484 -13.453 0 0 0 
42 3 1 -6.47947 -0.755785 -15.9558 0 0 0 
45 3 1 -8.70871 -3.06007 -8.32033 0 0 0 
44 2 1 -7.15535 0.253212 -8.99631 0 0 0 
40 1 1 -0.634871 1.29075 -12.0583 0 0 0 
38 2 1 -0.800755 -2.32955 -15.1739 0 0 0 
37 1 1 2.32416 0.0785546 -14.2489 0 0 0 
43 1 1 -3.48297 1.50981 -9.46112 0 0 0 
41 2 1 -4.17773 0.935805 -14.0308 0 0 0 
35 2 1 5.12298 4.02324 -14.1823 0 0 0 
36 3 1 4.05969 7.34459 -15.1607 0 0 0 
46 1 1 -4.68082 2.76085 -5.96024 0 0 0 
50 2 1 -2.13024 4.49911 -0.416113 0 0 0 
49 1 1 -5.15149 3.87938 -2.29748 0 0 0 
52 1 1 -6.20685 4.52173 1.48228 0 0 0 
51 3 1 0.888856 6.41307 1.05654 0 0 0 
48 3 1 -11.7904 1.28575 -6.34005 0 0 0 
47 2 1 -8.38804 2.09005 -4.98928 0 0 0 
57 3 1 -2.83918 5.36981 10.1071 0 0 0 
53 2 1 -3.45707 5.13775 4.33896 0 0 0 
54 3 1 -0.47432 6.9281 5.73041 0 0 0 
66 3 1 -21.0665 3.43802 15.1262 0 0 0 
61 1 1 -14.0335 5.3843 9.99881 0 0 0 
64 1 1 -16.187 6.14174 13.2234 0 0 0 
63 3 1 -19.7666 1.52668 8.75457 0 0 0 
62 2 1 -17.7114 4.24879 9.09572 0 0 0 
65 2 1 -20.0383 6.68883 14.3331 0 0 0 
58 1 1 -10.8886 5.07993 7.57568 0 0 0 
59 2 1 -9.22188 4.53382 11.2576 0 0 0 
55 1 1 -8.33622 4.79576 4.54571 0 0 0 
56 2 1 -5.8449 4.46062 7.66974 0 0 0 
60 3 1 -9.29402 3.61249 14.6011 0 0 0 
80 2 1 -25.6693 10.7574 32.7634 0 0 0 
81 3 1 -26.2358 7.81207 34.7283 0 0 0 
72 3 1 -26.3394 7.32836 19.5747 0 0 0 
74 2 1 -17.4711 12.2568 24.4998 0 0 0 
71 2 1 -22.5863 7.01848 19.4015 0 0 0 
73 1 1 -19.8793 9.12724 23.2299 0 0 0 
70 1 1 -18.5446 7.86805 19.9468 0 0 0 
76 1 1 -21.7812 9.93906 26.5949 0 0 0 
77 2 1 -23.9986 6.75257 27.7646 0 0 0 
67 1 1 -16.4215 6.7612 16.9766 0 0 0 
69 3 1 -10.8647 6.01607 21.6761 0 0 0 
68 2 1 -13.7677 6.05601 19.6548 0 0 0 
78 3 1 -27.0078 5.16771 28.3283 0 0 0 
83 2 1 -27.5669 14.1976 33.8335 0 0 0 
86 2 1 -30.5378 19.182 32.1512 0 0 0 
82 1 1 -25.3582 14.9414 30.5868 0 0 0 
85 1 1 -26.4861 18.7082 31.5742 0 0 0 
84 3 1 -28.193 16.6022 36.1673 0 0 0 
87 3 1 -33.379 17.714 34.3392 0 0 0 
75 3 1 -15.773 15.0671 23.4054 0 0 0 
79 1 1 -23.7948 11.6646 29.3691 0 0 0 
88 1 1 -26.4485 22.4991 32.7218 0 0 0 
89 2 1 -23.6688 25.3508 32.1025 0 0 0 
90 3 1 -20.8023 27.3775 32.6362 0 0 0 
ITEM: TIMESTEP
200000
ITEM: NUMBER OF ATOMS
90
ITEM: BOX BOUNDS pp pp pp
-139.825 139.825
-139.825 139.825
-139.825 139.825
ITEM: ATOMS id type mol x y z ix iy iz 
90 3 1 -47.7107 2.77125 -12.1593 0 0 0 
89 2 1 -45.273 0.118629 -13.0736 0 0 0 
85 1 1 -38.4876 1.32258 -13.3607 0 0 0 
84 3 1 -39.4518 6.85302 -18.2661 0 0 0 
88 1 1 -41.3578 -1.27752 -13.7009 0 0 0 
86 2 1 -37.9368 -1.96997 -10.9937 0 0 0 
83 2 1 -38.3597 5.54063 -14.9548 0 0 0 
3 3 1 44.8728 -17.8282 6.44552 0 0 0 
87 3 1 -40.4846 -3.73253 -9.41723 0 0 0 
9 3 1 31.9896 -15.0743 6.89917 0 0 0 
81 3 1 -35.4694 0.216832 -6.0501 0 0 0 
82 1 1 -35.6464 3.80528 -12.3879 0 0 0 
80 2 1 -34.8257 3.16595 -7.99341 0 0 0 
79 1 1 -32.3988 5.09871 -10.8097 0 0 0 
74 2 1 -28.8581 7.94721 -6.28394 0 0 0 
75 3 1 -30.7015 8.18491 -3.434 0 0 0 
76 1 1 -28.7695 6.3814 -10.4595 0 0 0 
78 3 1 -30.5856 6.80443 -17.1017 0 0 0 
77 2 1 -29.3009 5.10047 -14.0478 0 0 0 
73 1 1 -25.8417 7.64579 -8.38597 0 0 0 
12 3 1 31.8683 -20.3967 -7.10791 0 0 0 
14 2 1 26.1014 -17.037 -0.522616 0 0 0 
15 3 1 22.8639 -18.4907 0.480812 0 0 0 
13 1 1 30.1731 -16.7021 0.0214085 0 0 0 
8 2 1 34.414 -17.3627 4.7608 0 0 0 
7 1 1 36.0692 -20.4244 2.83827 0 0 0 
10 1 1 33.1188 -19.1735 0.497712 0 0 0 
11 2 1 31.8379 -19.585 -3.39458 0 0 0 
2 2 1 43.465 -20.9819 6.10059 0 0 0 
5 2 1 38.2555 -20.239 7.74975 0 0 0 
6 3 1 38.4479 -19.0922 11.1036 0 0 0 
1 1 1 42.2732 -24.4466 4.56241 0 0 0 
4 1 1 39.2559 -22.1677 4.23722 0 0 0 
20 2 1 22.9972 -10.2583 -3.03591 0 0 0 
21 3 1 19.9477 -9.51162 -0.809194 0 0 0 
19 1 1 26.2633 -10.0495 -0.494885 0 0 0 
22 1 1 24.1053 -6.79896 0.0810205 0 0 0 
25 1 1 21.0354 -4.57913 0.21529 0 0 0 
26 2 1 20.1924 -3.79474 -3.60364 0 0 0 
16 1 1 28.6061 -13.028 -0.403597 0 0 0 
69 3 1 -15.6284 8.10418 -10.762 0 0 0 
68 2 1 -18.1847 9.54163 -8.1741 0 0 0 
31 1 1 15.4583 0.0233613 2.72634 0 0 0 
33 3 1 8.34566 -0.760288 1.51669 0 0 0 
32 2 1 11.8494 0.246366 0.760762 0 0 0 
28 1 1 18.2203 -2.21835 1.22387 0 0 0 
27 3 1 19.9355 -1.52745 -6.23626 0 0 0 
29 2 1 14.672 -1.81627 -0.763251 0 0 0 
30 3 1 12.9036 -1.25706 -4.23497 0 0 0 
72 3 1 -19.0491 4.9701 -11.8261 0 0 0 
71 2 1 -21.7172 6.89366 -10.6048 0 0 0 
70 1 1 -22.3251 8.29352 -6.81892 0 0 0 
67 1 1 -19.7273 9.67568 -4.42422 0 0 0 
65 2 1 -18.9177 14.0744 -2.63438 0 0 0 
66 3 1 -18.2958 17.7101 -2.94468 0 0 0 
64 1 1 -18.1714 11.0346 -1.13846 0 0 0 
62 2 1 -18.104 14.7242 1.30586 0 0 0 
61 1 1 -16.1792 11.2579 2.22139 0 0 0 
56 2 1 -14.7552 9.60537 10.2167 0 0 0 
57 3 1 -16.65 10.5208 13.0466 0 0 0 
45 3 1 -0.295024 10.7143 6.22914 0 0 0 
42 3 1 5.06451 10.9998 4.54187 0 0 0 
38 2 1 7.06627 4.78641 3.15605 0 0 0 
39 3 1 4.90414 3.05381 0.436881 0 0 0 
41 2 1 4.40161 8.0972 6.41157 0 0 0 
63 3 1 -20.5148 17.5271 1.09067 0 0 0 
23 2 1 25.3725 -3.85456 2.04714 0 0 0 
24 3 1 24.4657 -1.97232 4.96985 0 0 0 
17 2 1 30.5513 -9.38448 -1.10824 0 0 0 
18 3 1 31.2305 -6.05041 -2.88143 0 0 0 
36 3 1 14.7548 5.48932 11.3382 0 0 0 
34 1 1 12.8788 1.9694 4.90592 0 0 0 
37 1 1 9.51449 3.74345 6.18356 0 0 0 
35 2 1 13.8594 2.73107 8.77601 0 0 0 
58 1 1 -13.969 10.6896 5.37216 0 0 0 
55 1 1 -11.3676 9.68139 7.974 0 0 0 
52 1 1 -7.92965 8.47279 9.13457 0 0 0 
47 2 1 -3.24922 2.81874 13.1567 0 0 0 
46 1 1 -1.15534 4.7109 10.2108 0 0 0 
43 1 1 2.56966 4.64803 9.1145 0 0 0 
44 2 1 0.63762 7.17331 7.38093 0 0 0 
49 1 1 -4.89668 6.2862 10.366 0 0 0 
40 1 1 6.0829 4.49456 7.55406 0 0 0 
60 3 1 -14.7935 18.5914 4.59699 0 0 0 
59 2 1 -14.2111 14.7634 4.83395 0 0 0 
53 2 1 -7.4234 11.8855 6.86609 0 0 0 
54 3 1 -7.22746 13.4771 3.51538 0 0 0 
51 3 1 -10.1156 2.8374 14.057 0 0 0 
48 3 1 -2.92354 -0.793388 14.4675 0 0 0 
50 2 1 -8.1575 5.65194 12.7633 0 0 0 
ITEM: TIMESTEP
300000
ITEM: NUMBER OF ATOMS
90
ITEM: BOX BOUNDS pp pp pp
-139.825 139.825
-139.825 139.825
-139.825 139.825
ITEM: ATOMS id type mol x y z ix iy iz 
89 2 1 -15.9785 6.92266 -44.0531 0 0 0 
90 3 1 -12.1817 6.15149 -43.8337 0 0 0 
88 1 1 -19.2285 7.8558 -41.748 0 0 0 
85 1 1 -19.1631 9.1042 -38.0124 0 0 0 
87 3 1 -25.0978 13.1512 -40.2753 0 0 0 
86 2 1 -21.7154 11.3783 -39.6806 0 0 0 
81 3 1 -11.9257 5.21744 -33.1738 0 0 0 
77 2 1 -16.2788 5.48251 -28.0411 0 0 0 
78 3 1 -14.9267 2.20246 -29.2673 0 0 0 
75 3 1 -24.714 12.226 -23.7473 0 0 0 
80 2 1 -15.1664 6.72842 -32.7776 0 0 0 
79 1 1 -18.0392 8.73714 -30.6575 0 0 0 
76 1 1 -18.2136 8.68348 -26.8135 0 0 0 
84 3 1 -22.2622 16.035 -36.7546 0 0 0 
82 1 1 -18.6218 9.54209 -34.3369 0 0 0 
83 2 1 -19.7485 13.2546 -35.9843 0 0 0 
72 3 1 -14.6139 2.65951 -23.9467 0 0 0 
71 2 1 -15.8317 5.76804 -22.2353 0 0 0 
74 2 1 -21.0276 11.4244 -24.0183 0 0 0 
68 2 1 -20.3309 10.8253 -16.4196 0 0 0 
69 3 1 -22.0199 13.8494 -17.9331 0 0 0 
70 1 1 -17.5796 7.76395 -19.3672 0 0 0 
73 1 1 -18.4091 8.93641 -22.9713 0 0 0 
61 1 1 -15.2679 5.14582 -9.16109 0 0 0 
62 2 1 -14.5806 3.22607 -12.6243 0 0 0 
63 3 1 -12.7997 1.4344 -15.5552 0 0 0 
58 1 1 -13.6608 3.66819 -5.89964 0 0 0 
59 2 1 -10.1169 3.71694 -7.86567 0 0 0 
60 3 1 -7.39409 2.75844 -9.82872 0 0 0 
67 1 1 -17.9197 7.85661 -15.5487 0 0 0 
64 1 1 -17.0439 7.31363 -11.7866 0 0 0 
66 3 1 -20.7305 13.6901 -12.3967 0 0 0 
65 2 1 -18.5804 11.0531 -11.8206 0 0 0 
55 1 1 -12.8732 2.09633 -2.70002 0 0 0 
49 1 1 -9.22777 0.586674 3.87947 0 0 0 
52 1 1 -10.6668 1.17415 0.376146 0 0 0 
50 2 1 -13.1146 0.698087 4.40735 0 0 0 
48 3 1 -1.22152 3.26908 2.38371 0 0 0 
47 2 1 -4.21952 1.82801 3.972 0 0 0 
53 2 1 -8.32002 2.56955 -2.14414 0 0 0 
54 3 1 -7.15411 -0.368375 -4.24075 0 0 0 
57 3 1 -20.2434 2.18792 -1.21168 0 0 0 
56 2 1 -16.9835 1.15551 -2.82343 0 0 0 
23 2 1 14.6229 -3.20211 14.8167 0 0 0 
24 3 1 11.2889 -4.11692 13.4698 0 0 0 
22 1 1 16.7481 -3.67439 18.3567 0 0 0 
18 3 1 19.0045 -12.5697 15.9251 0 0 0 
17 2 1 20.532 -9.34364 17.1825 0 0 0 
12 3 1 25.5931 -15.3143 14.9668 0 0 0 
11 2 1 27.886 -13.1321 16.7141 0 0 0 
9 3 1 33.6368 -14.4142 10.4134 0 0 0 
8 2 1 33.6099 -12.0619 13.194 0 0 0 
51 3 1 -14.9921 -0.656654 7.53161 0 0 0 
42 3 1 -9.66195 -7.25865 14.6373 0 0 0 
44 2 1 -9.01585 -3.38265 8.91594 0 0 0 
46 1 1 -6.69852 -0.0235496 6.73616 0 0 0 
41 2 1 -6.63411 -5.9108 13.0215 0 0 0 
43 1 1 -5.38286 -1.90931 9.90757 0 0 0 
45 3 1 -12.2274 -4.94809 8.93562 0 0 0 
40 1 1 -3.53704 -3.38569 12.9407 0 0 0 
37 1 1 -0.995103 -4.01785 15.8884 0 0 0 
33 3 1 5.43054 -8.07393 18.0492 0 0 0 
32 2 1 4.05386 -6.27964 20.7869 0 0 0 
31 1 1 5.70267 -2.90645 18.9514 0 0 0 
30 3 1 6.79177 4.69493 16.4077 0 0 0 
29 2 1 7.81432 1.89258 18.2109 0 0 0 
28 1 1 9.47846 -1.683 19.0116 0 0 0 
25 1 1 13.2639 -2.03833 19.2718 0 0 0 
20 2 1 19.193 -3.75217 22.4087 0 0 0 
19 1 1 20.4085 -5.11887 18.7443 0 0 0 
16 1 1 23.6737 -7.02426 18.0714 0 0 0 
21 3 1 16.1557 -1.9993 23.6622 0 0 0 
14 2 1 26.4185 -4.32472 19.3274 0 0 0 
13 1 1 27.3919 -8.04037 18.0179 0 0 0 
10 1 1 30.557 -10.2015 17.3631 0 0 0 
7 1 1 34.4598 -10.8108 17.0629 0 0 0 
5 2 1 36.2951 -7.61478 20.7639 0 0 0 
1 1 1 41.9412 -11.2847 18.6132 0 0 0 
3 3 1 38.9549 -12.3275 25.6662 0 0 0 
2 2 1 40.5414 -12.2975 22.3242 0 0 0 
4 1 1 38.0929 -10.4751 18.326 0 0 0 
39 3 1 -5.99579 -9.32528 17.5872 0 0 0 
38 2 1 -4.2599 -6.30407 16.7506 0 0 0 
34 1 1 2.16697 -3.9093 18.0409 0 0 0 
35 2 1 0.150066 -7.28018 19.5312 0 0 0 
36 3 1 0.451076 -11.0548 20.1075 0 0 0 
27 3 1 12.1599 2.88929 24.7032 0 0 0 
26 2 1 12.2656 0.968415 21.6521 0 0 0 
15 3 1 23.8381 -1.89387 20.7237 0 0 0 
6 3 1 34.9738 -5.69915 23.4771 0 0 0 
ITEM: TIMESTEP
400000
ITEM: NUMBER OF ATOMS
90
ITEM: BOX BOUNDS pp pp pp
-139.825 139.825
-139.825 139.825
-139.825 139.825
ITEM: ATOMS id type mol x y z ix iy iz 
84 3 1 -22.7887 11.9675 -37.6202 0 0 0 
69 3 1 -12.0488 -4.59817 -26.6772 0 0 0 
78 3 1 -23.1197 2.95217 -32.3115 0 0 0 
77 2 1 -21.3008 4.52469 -29.2989 0 0 0 
76 1 1 -17.9086 5.7084 -27.7469 0 0 0 
74 2 1 -18.84 0.480821 -27.3609 0 0 0 
75 3 1 -20.6637 -1.30736 -30.2413 0 0 0 
73 1 1 -16.3128 2.99135 -25.4635 0 0 0 
71 2 1 -15.0221 4.96373 -21.7875 0 0 0 
70 1 1 -13.7856 1.27373 -22.8462 0 0 0 
68 2 1 -11.1097 -2.56227 -24.0827 0 0 0 
81 3 1 -24.7526 7.80457 -34.3818 0 0 0 
83 2 1 -21.3921 12.9414 -34.5302 0 0 0 
80 2 1 -21.7682 8.35478 -32.7074 0 0 0 
85 1 1 -18.8098 15.9284 -32.3269 0 0 0 
79 1 1 -18.9204 8.94204 -29.727 0 0 0 
82 1 1 -18.9473 12.3024 -31.4132 0 0 0 
72 3 1 -13.8664 8.52409 -20.5635 0 0 0 
87 3 1 -21.0253 19.5341 -26.5232 0 0 0 
88 1 1 -18.2342 19.3195 -34.0122 0 0 0 
61 1 1 -7.4599 -4.69385 -15.2426 0 0 0 
67 1 1 -11.3494 -0.937615 -20.5899 0 0 0 
64 1 1 -9.39061 -2.28409 -17.5103 0 0 0 
65 2 1 -10.2193 1.58142 -16.9266 0 0 0 
66 3 1 -11.9969 4.04 -14.8571 0 0 0 
62 2 1 -8.65788 -1.53511 -13.0212 0 0 0 
63 3 1 -8.89505 -0.264036 -9.62064 0 0 0 
86 2 1 -20.2568 18.1018 -29.9579 0 0 0 
90 3 1 -17.2761 22.2304 -28.3058 0 0 0 
89 2 1 -18.968 22.7101 -31.654 0 0 0 
51 3 1 2.04045 -18.0962 -11.3703 0 0 0 
50 2 1 1.8698 -15.8699 -8.29547 0 0 0 
60 3 1 -6.35835 -12.3766 -19.8116 0 0 0 
59 2 1 -6.67935 -9.68947 -17.2693 0 0 0 
58 1 1 -5.78927 -7.92918 -13.7131 0 0 0 
54 3 1 -5.48276 -16.3649 -14.4756 0 0 0 
56 2 1 -4.84902 -6.70687 -9.30617 0 0 0 
55 1 1 -4.09353 -10.2391 -11.0788 0 0 0 
52 1 1 -2.13715 -12.8317 -8.89611 0 0 0 
53 2 1 -3.45044 -14.2912 -12.2893 0 0 0 
49 1 1 -0.114857 -13.9913 -5.83804 0 0 0 
57 3 1 -5.66221 -4.20289 -6.45228 0 0 0 
48 3 1 2.90667 -20.9997 -4.99503 0 0 0 
45 3 1 4.87019 -18.4531 2.24137 0 0 0 
47 2 1 2.72062 -17.3106 -3.89454 0 0 0 
44 2 1 1.85263 -16.1886 2.40609 0 0 0 
46 1 1 1.54685 -14.0803 -2.30704 0 0 0 
43 1 1 2.91033 -12.6549 1.04789 0 0 0 
40 1 1 4.1317 -9.99246 3.60923 0 0 0 
38 2 1 5.96335 -5.63162 1.93641 0 0 0 
36 3 1 7.24556 0.680216 2.53886 0 0 0 
39 3 1 6.64658 -7.75686 -1.09631 0 0 0 
42 3 1 1.8086 -15.634 8.40603 0 0 0 
41 2 1 3.21344 -13.364 5.76171 0 0 0 
33 3 1 6.71935 -10.5383 11.5689 0 0 0 
32 2 1 7.89842 -7.03234 11.2759 0 0 0 
37 1 1 5.75797 -7.19913 5.59398 0 0 0 
34 1 1 7.14428 -4.54425 8.22075 0 0 0 
35 2 1 7.78674 -2.35354 4.82719 0 0 0 
30 3 1 8.22879 2.14856 7.81922 0 0 0 
31 1 1 8.07437 -2.97794 11.5865 0 0 0 
29 2 1 8.21865 1.94991 11.6477 0 0 0 
27 3 1 4.14251 -3.98036 19.2446 0 0 0 
26 2 1 7.27948 -2.67336 18.0389 0 0 0 
28 1 1 9.37885 -0.637984 14.4875 0 0 0 
25 1 1 10.683 -0.412143 18.0421 0 0 0 
22 1 1 12.8654 0.965607 20.8672 0 0 0 
23 2 1 15.2152 0.815931 17.5912 0 0 0 
19 1 1 14.1001 2.47223 24.0756 0 0 0 
24 3 1 18.7472 -0.469115 16.6011 0 0 0 
21 3 1 8.65049 -2.14718 22.9052 0 0 0 
20 2 1 11.1825 -0.280365 24.4604 0 0 0 
15 3 1 23.7457 2.80932 29.2463 0 0 0 
14 2 1 20.5583 3.89225 28.289 0 0 0 
13 1 1 17.3214 5.21787 30.2753 0 0 0 
16 1 1 16.0995 4.56852 26.625 0 0 0 
18 3 1 18.2991 7.50311 19.7786 0 0 0 
17 2 1 17.104 6.21216 23.0472 0 0 0 
10 1 1 17.0063 6.13852 34.0877 0 0 0 
12 3 1 23.9446 6.27658 34.5257 0 0 0 
11 2 1 20.7488 4.85837 33.8905 0 0 0 
9 3 1 11.2945 11.5228 32.9524 0 0 0 
8 2 1 13.8595 9.46263 34.6608 0 0 0 
3 3 1 11.6411 10.7994 38.5853 0 0 0 
2 2 1 11.7857 11.4862 42.0305 0 0 0 
7 1 1 15.5739 7.31002 37.4813 0 0 0 
5 2 1 19.0361 6.71071 40.4754 0 0 0 
4 1 1 15.2803 8.00136 41.3236 0 0 0 
1 1 1 14.1292 9.42146 44.7351 0 0 0 
6 3 1 22.6075 5.21633 40.7001 0 0 0 
ITEM: TIMESTEP
500000
ITEM: NUMBER OF ATOMS
90
ITEM: BOX BOUNDS pp pp pp
-139.825 139.825
-139.825 139.825
-139.825 139.825
ITEM: ATOMS id type mol x y z ix iy iz 
90 3 1 -25.7828 3.3555 -47.8641 0 0 0 
89 2 1 -22.1523 4.26722 -48.7751 0 0 0 
88 1 1 -19.248 6.9504 -48.4041 0 0 0 
80 2 1 -16.626 3.79115 -39.0007 0 0 0 
81 3 1 -20.42 3.30324 -39.2558 0 0 0 
87 3 1 -24.4854 6.65927 -42.3987 0 0 0 
86 2 1 -21.3074 5.55435 -44.0796 0 0 0 
85 1 1 -17.3164 6.2416 -44.9906 0 0 0 
79 1 1 -13.5046 6.09729 -38.3633 0 0 0 
83 2 1 -12.9711 8.81023 -44.9135 0 0 0 
82 1 1 -14.8056 6.67655 -42.0194 0 0 0 
78 3 1 -5.48556 10.251 -37.2955 0 0 0 
77 2 1 -8.55716 8.60788 -36.8567 0 0 0 
84 3 1 -10.2429 11.1333 -45.8487 0 0 0 
75 3 1 -15.6629 -0.370587 -34.1134 0 0 0 
73 1 1 -10.4547 4.82605 -31.5792 0 0 0 
74 2 1 -13.4923 2.58239 -33.1763 0 0 0 
70 1 1 -8.83925 4.5478 -28.0584 0 0 0 
66 3 1 -2.36987 4.5329 -28.4854 0 0 0 
76 1 1 -11.1926 5.82505 -35.2132 0 0 0 
71 2 1 -6.97082 6.8289 -30.6629 0 0 0 
72 3 1 -5.29694 9.92228 -31.9928 0 0 0 
60 3 1 -6.15228 -5.5545 -16.8353 0 0 0 
69 3 1 -13.157 1.15328 -21.6676 0 0 0 
68 2 1 -10.6906 3.07189 -23.5487 0 0 0 
67 1 1 -6.9861 3.64865 -24.748 0 0 0 
63 3 1 -5.68445 -5.09847 -23.1039 0 0 0 
65 2 1 -2.86587 4.72591 -24.8876 0 0 0 
62 2 1 -5.02182 -2.17824 -21.1097 0 0 0 
64 1 1 -4.67945 2.61724 -21.8426 0 0 0 
61 1 1 -3.56136 0.813757 -18.7303 0 0 0 
59 2 1 -3.20293 -3.85957 -17.6727 0 0 0 
58 1 1 -1.71737 -0.530916 -15.5965 0 0 0 
51 3 1 3.02827 -10.8426 -8.94832 0 0 0 
50 2 1 2.34762 -7.28278 -7.91575 0 0 0 
56 2 1 1.34105 2.43757 -13.8082 0 0 0 
49 1 1 3.50367 -3.83941 -6.10807 0 0 0 
55 1 1 0.541622 -0.883569 -12.4286 0 0 0 
52 1 1 2.48688 -1.93232 -9.3685 0 0 0 
53 2 1 4.90143 0.846638 -11.0427 0 0 0 
54 3 1 7.46351 2.69297 -12.974 0 0 0 
57 3 1 2.99394 5.77391 -14.1463 0 0 0 
48 3 1 4.47439 -11.8348 -4.59704 0 0 0 
42 3 1 1.40562 -8.90965 2.81013 0 0 0 
41 2 1 3.91681 -6.45549 3.59078 0 0 0 
47 2 1 5.07 -8.2857 -4.14613 0 0 0 
46 1 1 4.81945 -4.53842 -2.35197 0 0 0 
43 1 1 6.17517 -3.42962 1.18745 0 0 0 
40 1 1 5.74711 -3.07473 5.06491 0 0 0 
44 2 1 8.79179 -1.299 -0.950867 0 0 0 
45 3 1 12.1339 -0.53716 -2.31883 0 0 0 
36 3 1 -3.27125 -2.90353 9.31417 0 0 0 
35 2 1 0.402872 -3.17291 10.6796 0 0 0 
34 1 1 3.91877 -3.0661 12.6065 0 0 0 
37 1 1 5.17328 -2.95621 8.93016 0 0 0 
38 2 1 8.63181 -1.08946 8.18092 0 0 0 
32 2 1 7.27507 -4.02678 15.2258 0 0 0 
39 3 1 11.7323 0.348441 8.64671 0 0 0 
33 3 1 11.0879 -4.10539 15.0705 0 0 0 
30 3 1 -2.96821 -6.84746 19.8794 0 0 0 
29 2 1 0.0193741 -5.29091 19.486 0 0 0 
28 1 1 3.36277 -3.17074 20.3845 0 0 0 
27 3 1 -2.54783 -1.25351 23.3438 0 0 0 
26 2 1 0.93568 -2.17919 24.2438 0 0 0 
25 1 1 4.86006 -2.22692 23.7596 0 0 0 
31 1 1 3.40379 -3.24283 16.4768 0 0 0 
24 3 1 10.4596 -4.1997 21.0835 0 0 0 
23 2 1 9.16509 -3.62867 24.3157 0 0 0 
15 3 1 2.28946 1.46629 34.7703 0 0 0 
20 2 1 5.66127 2.80327 29.1606 0 0 0 
22 1 1 7.07945 -1.71243 26.9932 0 0 0 
16 1 1 8.5581 -0.961933 34.2434 0 0 0 
19 1 1 7.74923 -0.533208 30.4858 0 0 0 
17 2 1 12.0547 -1.18114 32.2311 0 0 0 
18 3 1 15.2767 -3.22175 31.7657 0 0 0 
21 3 1 4.10199 6.37256 29.3534 0 0 0 
9 3 1 2.05087 -0.813842 43.0926 0 0 0 
14 2 1 4.80749 0.277079 37.3755 0 0 0 
8 2 1 5.16914 -0.822997 44.6549 0 0 0 
13 1 1 8.4956 -1.4125 38.0484 0 0 0 
11 2 1 11.9729 -3.63034 40.3819 0 0 0 
10 1 1 9.14199 -2.01447 41.9067 0 0 0 
7 1 1 8.93847 -1.87648 45.7292 0 0 0 
5 2 1 13.4661 -1.29932 46.32 0 0 0 
12 3 1 15.4053 -3.2517 40.2322 0 0 0 
6 3 1 16.6926 0.252668 44.729 0 0 0 
4 1 1 10.8163 -2.1186 49.1624 0 0 0 
1 1 1 11.7368 -2.77034 52.8361 0 0 0 
2 2 1 14.976 -0.591517 51.6555 0 0 0 
3 3 1 17.9016 0.481511 49.7131 0 0 0 
ITEM: TIMESTEP
600000
ITEM: NUMBER OF ATOMS
90
ITEM: BOX BOUNDS pp pp pp
-139.825 139.825
-139.825 139.825
-139.825 139.825
ITEM: ATOMS id type mol x y z ix iy iz 
84 3 1 -5.03463 7.12712 -46.0717 0 0 0 
90 3 1 -20.8263 8.82396 -46.0324 0 0 0 
89 2 1 -17.5549 10.2238 -46.9516 0 0 0 
88 1 1 -13.5851 11.534 -46.7128 0 0 0 
86 2 1 -9.23213 11.3705 -47.1288 0 0 0 
87 3 1 -8.30065 10.4167 -50.4326 0 0 0 
79 1 1 -9.05278 7.17085 -36.9683 0 0 0 
83 2 1 -7.04869 8.59053 -43.1876 0 0 0 
81 3 1 -15.825 9.41272 -34.3257 0 0 0 
77 2 1 -4.42475 4.10439 -37.2776 0 0 0 
85 1 1 -11.353 10.3723 -43.7776 0 0 0 
82 1 1 -9.95089 8.96389 -40.3926 0 0 0 
80 2 1 -12.8471 8.40184 -36.0077 0 0 0 
78 3 1 -1.33772 2.47104 -37.8849 0 0 0 
72 3 1 -11.9362 7.28279 -25.7712 0 0 0 
76 1 1 -7.09116 4.8908 -34.5089 0 0 0 
74 2 1 -9.65022 6.86949 -31.6613 0 0 0 
73 1 1 -6.92301 4.03091 -30.7523 0 0 0 
68 2 1 -4.01081 -1.73701 -27.6856 0 0 0 
75 3 1 -10.6849 10.606 -31.831 0 0 0 
69 3 1 -4.33662 -3.9038 -30.4046 0 0 0 
70 1 1 -5.74919 2.69213 -27.2636 0 0 0 
71 2 1 -8.49573 5.70578 -26.5204 0 0 0 
60 3 1 -6.05017 -8.69761 -21.0271 0 0 0 
59 2 1 -5.63787 -7.16998 -17.9017 0 0 0 
67 1 1 -4.32773 0.51823 -24.2737 0 0 0 
66 3 1 -1.14972 6.32596 -19.7892 0 0 0 
62 2 1 -0.182435 0.110674 -17.8116 0 0 0 
63 3 1 1.29648 2.65184 -15.8729 0 0 0 
64 1 1 -3.11003 -0.823537 -20.9296 0 0 0 
61 1 1 -2.29567 -3.30235 -18.0073 0 0 0 
65 2 1 -2.40047 3.06564 -20.3412 0 0 0 
57 3 1 -6.28942 -12.056 -15.9479 0 0 0 
56 2 1 -3.59631 -10.1116 -14.264 0 0 0 
51 3 1 -3.5572 -15.6987 -5.86756 0 0 0 
58 1 1 -2.62561 -6.14865 -15.2319 0 0 0 
55 1 1 -1.74892 -7.97516 -12.0371 0 0 0 
53 2 1 1.5252 -5.24122 -10.0325 0 0 0 
52 1 1 -0.434624 -8.34202 -8.34489 0 0 0 
54 3 1 4.30991 -3.62676 -11.6207 0 0 0 
50 2 1 -1.50495 -12.4463 -5.69439 0 0 0 
44 2 1 0.0442533 -11.8766 2.52413 0 0 0 
45 3 1 -0.813846 -15.2221 0.852718 0 0 0 
47 2 1 3.25094 -5.72928 -3.4655 0 0 0 
49 1 1 0.172567 -8.89004 -4.65259 0 0 0 
46 1 1 1.77085 -8.81274 -1.11859 0 0 0 
43 1 1 2.93457 -9.10243 2.595 0 0 0 
48 3 1 5.92096 -4.82157 -6.15228 0 0 0 
39 3 1 4.29054 -12.9781 13.2101 0 0 0 
42 3 1 1.93931 -15.1347 6.68133 0 0 0 
40 1 1 4.26545 -8.7088 6.26081 0 0 0 
41 2 1 4.76808 -12.7752 5.83558 0 0 0 
38 2 1 5.40145 -10.4465 10.7279 0 0 0 
37 1 1 4.92006 -6.53267 9.39158 0 0 0 
34 1 1 5.2758 -3.49601 11.823 0 0 0 
35 2 1 4.93032 -2.32948 7.9642 0 0 0 
36 3 1 3.66859 -0.741379 4.73034 0 0 0 
32 2 1 1.81472 -1.10855 13.5403 0 0 0 
33 3 1 -1.01183 0.70647 12.6306 0 0 0 
21 3 1 -1.42725 2.34817 25.467 0 0 0 
25 1 1 7.66644 1.86719 21.6716 0 0 0 
31 1 1 5.33448 -1.27288 15.0446 0 0 0 
28 1 1 6.77841 0.455571 18.2 0 0 0 
27 3 1 13.3332 4.30761 17.5446 0 0 0 
29 2 1 9.65908 0.347727 15.4225 0 0 0 
30 3 1 13.3767 -0.816187 15.0355 0 0 0 
26 2 1 11.0055 2.58246 19.4723 0 0 0 
20 2 1 2.25188 1.96749 26.717 0 0 0 
16 1 1 4.84769 2.609 32.6438 0 0 0 
17 2 1 8.12088 0.125525 32.3287 0 0 0 
22 1 1 6.65101 2.37369 25.4096 0 0 0 
23 2 1 10.7675 2.57581 25.0301 0 0 0 
19 1 1 4.93428 2.50358 28.8606 0 0 0 
24 3 1 14.2065 3.75889 26.3022 0 0 0 
18 3 1 11.6771 -0.639918 33.0933 0 0 0 
15 3 1 3.80145 10.1388 33.9807 0 0 0 
12 3 1 9.8883 0.757912 37.7357 0 0 0 
14 2 1 3.11669 6.74346 34.1531 0 0 0 
13 1 1 3.46994 3.25661 36.2122 0 0 0 
9 3 1 -4.29673 2.74188 42.7907 0 0 0 
8 2 1 -0.433182 2.13024 42.9389 0 0 0 
7 1 1 3.42972 3.09383 44.0048 0 0 0 
10 1 1 3.18277 3.26908 40.1744 0 0 0 
11 2 1 6.16003 0.920496 38.536 0 0 0 
6 3 1 10.6343 0.820988 42.9008 0 0 0 
4 1 1 5.35911 3.70642 47.3384 0 0 0 
5 2 1 8.06491 2.86 44.3889 0 0 0 
1 1 1 6.49146 4.19068 50.9582 0 0 0 
3 3 1 5.66603 -2.40258 52.7967 0 0 0 
2 2 1 6.45067 0.574432 51.0488 0 0 0 
ITEM: TIMESTEP
700000
ITEM: NUMBER OF ATOMS
90
ITEM: BOX BOUNDS pp pp pp
-139.825 139.825
-139.825 139.825
-139.825 139.825
ITEM: ATOMS id type mol x y z ix iy iz 
77 2 1 8.29922 -8.21507 -26.8162 0 0 0 
84 3 1 19.767 -7.30693 -23.3778 0 0 0 
72 3 1 3.23527 -2.85908 -33.8439 0 0 0 
71 2 1 2.85203 -1.78691 -30.1289 0 0 0 
75 3 1 2.77942 -9.41033 -29.0364 0 0 0 
74 2 1 3.70912 -6.61303 -27.0587 0 0 0 
78 3 1 9.0445 -9.77943 -29.8013 0 0 0 
69 3 1 -2.67103 3.66074 -31.2792 0 0 0 
82 1 1 12.6764 -8.58328 -20.6791 0 0 0 
79 1 1 10.6041 -6.70456 -23.1444 0 0 0 
83 2 1 16.5589 -8.64729 -21.9283 0 0 0 
90 3 1 17.1207 -19.1275 -13.5935 0 0 0 
88 1 1 14.1972 -12.5201 -14.7544 0 0 0 
89 2 1 16.4454 -15.6809 -13.6788 0 0 0 
85 1 1 14.4434 -10.4586 -17.9173 0 0 0 
86 2 1 17.9393 -10.1506 -15.9982 0 0 0 
66 3 1 3.00844 11.0972 -26.0863 0 0 0 
70 1 1 2.5601 0.318008 -26.6697 0 0 0 
67 1 1 0.793462 3.40327 -24.8963 0 0 0 
68 2 1 -1.6563 2.60114 -28.1953 0 0 0 
64 1 1 -0.0115555 6.35696 -22.5486 0 0 0 
73 1 1 4.82545 -2.81273 -26.2011 0 0 0 
65 2 1 2.66095 7.54612 -25.4038 0 0 0 
76 1 1 7.71792 -5.24767 -25.2946 0 0 0 
80 2 1 13.9976 -4.76281 -22.8167 0 0 0 
81 3 1 14.6066 -3.12419 -19.5886 0 0 0 
62 2 1 -4.51542 6.55882 -21.4173 0 0 0 
63 3 1 -7.72518 5.23774 -21.7259 0 0 0 
61 1 1 -1.40975 8.1576 -19.4656 0 0 0 
87 3 1 20.1475 -7.23061 -16.9279 0 0 0 
60 3 1 -8.98353 11.2019 -20.3685 0 0 0 
54 3 1 -9.41051 11.3148 -12.0429 0 0 0 
53 2 1 -6.39069 13.5902 -11.7494 0 0 0 
58 1 1 -2.30142 10.1898 -16.321 0 0 0 
55 1 1 -2.30724 11.4011 -12.5473 0 0 0 
59 2 1 -5.29094 10.9397 -19.0754 0 0 0 
57 3 1 2.95908 6.87116 -13.4093 0 0 0 
52 1 1 -3.44807 12.6454 -9.02695 0 0 0 
56 2 1 0.756198 9.73795 -13.4772 0 0 0 
50 2 1 -0.37245 12.3056 -5.12183 0 0 0 
51 3 1 3.1753 13.0426 -4.61924 0 0 0 
36 3 1 -9.45122 9.98109 5.28454 0 0 0 
49 1 1 -4.28476 13.631 -5.40096 0 0 0 
46 1 1 -5.90448 14.9636 -2.13742 0 0 0 
43 1 1 -6.33769 14.867 1.82124 0 0 0 
47 2 1 -7.73795 17.2292 -4.80573 0 0 0 
48 3 1 -10.4421 19.549 -6.10218 0 0 0 
44 2 1 -8.89457 17.0188 0.786029 0 0 0 
45 3 1 -10.9054 19.9524 0.577255 0 0 0 
27 3 1 -13.0522 2.75059 17.3704 0 0 0 
28 1 1 -5.45147 3.88702 16.6502 0 0 0 
33 3 1 -12.9539 10.0441 12.6636 0 0 0 
32 2 1 -9.54249 8.2996 12.6235 0 0 0 
34 1 1 -5.14501 9.50235 11.5301 0 0 0 
35 2 1 -7.87732 9.84111 8.49708 0 0 0 
31 1 1 -5.89407 6.80031 14.0825 0 0 0 
37 1 1 -5.18263 12.3643 8.87321 0 0 0 
40 1 1 -6.08699 14.1086 5.61421 0 0 0 
41 2 1 -6.93438 17.4917 5.27539 0 0 0 
42 3 1 -6.78488 21.1889 5.5478 0 0 0 
38 2 1 -3.8332 16.2063 9.78607 0 0 0 
39 3 1 -2.19231 18.9046 11.0266 0 0 0 
15 3 1 -3.84011 -8.03241 31.3342 0 0 0 
14 2 1 -5.05914 -11.0266 29.4125 0 0 0 
19 1 1 -3.75856 -5.72641 22.7513 0 0 0 
21 3 1 -3.64348 -5.82581 15.3052 0 0 0 
20 2 1 -3.44606 -6.10728 18.7836 0 0 0 
16 1 1 -3.21415 -8.74987 25.2855 0 0 0 
13 1 1 -2.07569 -12.1187 26.9019 0 0 0 
17 2 1 -6.21637 -6.37555 26.4618 0 0 0 
8 2 1 4.27061 -14.1502 24.941 0 0 0 
9 3 1 6.9261 -11.9195 23.7947 0 0 0 
26 2 1 -9.74641 1.00829 18.2896 0 0 0 
25 1 1 -5.80796 0.663079 18.8809 0 0 0 
22 1 1 -4.80078 -2.36437 21.2199 0 0 0 
23 2 1 -7.37954 -0.30901 23.6759 0 0 0 
18 3 1 -7.29457 -3.30639 27.6301 0 0 0 
24 3 1 -10.4991 0.888218 25.3613 0 0 0 
30 3 1 1.06881 7.60561 17.7272 0 0 0 
29 2 1 -2.25891 6.11721 17.3459 0 0 0 
11 2 1 -3.05501 -16.1083 29.2712 0 0 0 
6 3 1 -0.418394 -24.6502 26.1488 0 0 0 
4 1 1 5.58167 -20.5593 27.0038 0 0 0 
5 2 1 2.12201 -22.2492 28.0796 0 0 0 
7 1 1 3.21692 -17.6492 26.9428 0 0 0 
3 3 1 3.72174 -26.0742 30.9781 0 0 0 
2 2 1 6.04386 -25.1466 28.1653 0 0 0 
1 1 1 8.82176 -22.7985 26.593 0 0 0 
12 3 1 -5.93463 -18.3765 30.063 0 0 0 
10 1 1 0.248068 -15.1728 27.2603 0 0 0 
ITEM: TIMESTEP
800000
ITEM: NUMBER OF ATOMS
90
ITEM: BOX BOUNDS pp pp pp
-139.825 139.825
-139.825 139.825
-139.825 139.825
ITEM: ATOMS id type mol x y z ix iy iz 
81 3 1 -2.87517 2.94599 -38.8896 0 0 0 
87 3 1 -7.5706 0.397723 -44.1552 0 0 0 
89 2 1 -16.9356 3.4667 -40.9973 0 0 0 
90 3 1 -20.0598 1.66138 -41.4332 0 0 0 
88 1 1 -13.0656 4.5709 -41.9892 0 0 0 
85 1 1 -10.5505 5.37362 -39.2284 0 0 0 