ITEM: TIMESTEP
0
ITEM: NUMBER OF ATOMS
102
ITEM: BOX BOUNDS pp pp pp
-145.782 145.782
-145.782 145.782
-145.782 145.782
ITEM: ATOMS id type mol x y z ix iy iz 
3 3 1 -16.5505 -12.4218 -55.4573 0 0 0 
1 1 1 -9.71487 -11.6575 -58.5708 0 0 0 
2 2 1 -13.1044 -11.7159 -56.6995 0 0 0 
5 2 1 -5.60187 -11.8615 -55.9501 0 0 0 
9 3 1 -15.3794 -10.9515 -48.4205 0 0 0 
4 1 1 -9.12934 -10.9223 -55.0524 0 0 0 
7 1 1 -8.54381 -10.1871 -51.534 0 0 0 
8 2 1 -11.9333 -10.2456 -49.6627 0 0 0 
10 1 1 -7.95828 -9.45196 -48.0156 0 0 0 
6 3 1 -2.01466 -12.8323 -55.1249 0 0 0 
11 2 1 -4.43081 -10.3911 -48.9133 0 0 0 
12 3 1 -0.843596 -11.362 -48.0881 0 0 0 
13 1 1 -7.37275 -8.7168 -44.4972 0 0 0 
14 2 1 -10.7623 -8.77528 -42.6259 0 0 0 
15 3 1 -14.2083 -9.4812 -41.3836 0 0 0 
16 1 1 -6.78722 -7.98163 -40.9788 0 0 0 
19 1 1 -6.20169 -7.24647 -37.4604 0 0 0 
20 2 1 -9.59121 -7.30495 -35.5891 0 0 0 
17 2 1 -3.25975 -8.92082 -41.8765 0 0 0 
18 3 1 0.327464 -9.89168 -41.0513 0 0 0 
21 3 1 -13.0373 -8.01088 -34.3468 0 0 0 
22 1 1 -5.61616 -6.51131 -33.942 0 0 0 
25 1 1 -5.03063 -5.77614 -30.4236 0 0 0 
26 2 1 -8.42014 -5.83463 -28.5523 0 0 0 
27 3 1 -11.8662 -6.54055 -27.31 0 0 0 
23 2 1 -2.08869 -7.45049 -34.8397 0 0 0 
24 3 1 1.49853 -8.42135 -34.0145 0 0 0 
28 1 1 -4.4451 -5.04098 -26.9052 0 0 0 
29 2 1 -0.91763 -5.98017 -27.8029 0 0 0 
30 3 1 2.66959 -6.95103 -26.9778 0 0 0 
33 3 1 -10.6951 -5.07022 -20.2732 0 0 0 
36 3 1 3.84065 -5.4807 -19.9409 0 0 0 
32 2 1 -7.24908 -4.3643 -21.5155 0 0 0 
31 1 1 -3.85956 -4.30582 -23.3868 0 0 0 
34 1 1 -3.27403 -3.57065 -19.8684 0 0 0 
35 2 1 0.253431 -4.50984 -20.7661 0 0 0 
37 1 1 -2.6885 -2.83549 -16.35 0 0 0 
38 2 1 -6.07802 -2.89397 -14.4787 0 0 0 
39 3 1 -9.52409 -3.5999 -13.2364 0 0 0 
45 3 1 -8.35303 -2.12957 -6.19964 0 0 0 
40 1 1 -2.10297 -2.10033 -12.8316 0 0 0 
41 2 1 1.42449 -3.03951 -13.7293 0 0 0 
42 3 1 5.01171 -4.01037 -12.9041 0 0 0 
43 1 1 -1.51744 -1.36516 -9.31319 0 0 0 
44 2 1 -4.90696 -1.42365 -7.44193 0 0 0 
46 1 1 -0.931911 -0.629998 -5.79479 0 0 0 
47 2 1 2.59555 -1.56918 -6.69249 0 0 0 
48 3 1 6.18277 -2.54004 -5.86735 0 0 0 
51 3 1 -7.18197 -0.659241 0.837158 0 0 0 
49 1 1 -0.34638 0.105164 -2.27638 0 0 0 
50 2 1 -3.7359 0.046681 -0.405124 0 0 0 
52 1 1 0.23915 0.840328 1.24202 0 0 0 
53 2 1 3.76661 -0.098857 0.344313 0 0 0 
55 1 1 0.82468 1.57549 4.76042 0 0 0 
54 3 1 7.35383 -1.06972 1.16945 0 0 0 
57 3 1 -6.01091 0.811085 7.87396 0 0 0 
56 2 1 -2.56484 1.51701 6.63168 0 0 0 
58 1 1 1.41021 2.31066 8.27882 0 0 0 
59 2 1 4.93768 1.37147 7.38111 0 0 0 
61 1 1 1.99574 3.04582 11.7972 0 0 0 
62 2 1 -1.39377 2.98733 13.6685 0 0 0 
63 3 1 -4.83985 2.28141 14.9108 0 0 0 
60 3 1 8.52489 0.400609 8.20626 0 0 0 
65 2 1 6.10874 2.8418 14.4179 0 0 0 
64 1 1 2.58127 3.78098 15.3156 0 0 0 
67 1 1 3.1668 4.51615 18.834 0 0 0 
68 2 1 -0.222713 4.45766 20.7053 0 0 0 
69 3 1 -3.66878 3.75174 21.9476 0 0 0 
66 3 1 9.69595 1.87094 15.2431 0 0 0 
71 2 1 7.2798 4.31212 21.4547 0 0 0 
72 3 1 10.867 3.34126 22.2798 0 0 0 
70 1 1 3.75233 5.25131 22.3524 0 0 0 
78 3 1 12.0381 4.81159 29.3167 0 0 0 
73 1 1 4.33786 5.98647 25.8708 0 0 0 
74 2 1 0.948347 5.92799 27.7421 0 0 0 
75 3 1 -2.49772 5.22207 28.9844 0 0 0 
76 1 1 4.9234 6.72164 29.3892 0 0 0 
80 2 1 2.11941 7.39832 34.7789 0 0 0 
77 2 1 8.45086 5.78245 28.4915 0 0 0 
79 1 1 5.50893 7.4568 32.9076 0 0 0 
81 3 1 -1.32666 6.69239 36.0212 0 0 0 
86 2 1 3.29047 8.86864 41.8157 0 0 0 
87 3 1 -0.155599 8.16272 43.058 0 0 0 
82 1 1 6.09446 8.19196 36.426 0 0 0 
83 2 1 9.62192 7.25278 35.5283 0 0 0 
84 3 1 13.2091 6.28192 36.3535 0 0 0 
85 1 1 6.67999 8.92713 39.9444 0 0 0 
88 1 1 7.26552 9.66229 43.4628 0 0 0 
89 2 1 10.793 8.72311 42.5651 0 0 0 
90 3 1 14.3802 7.75224 43.3903 0 0 0 
92 2 1 4.46153 10.339 48.8525 0 0 0 
93 3 1 1.01546 9.63305 50.0948 0 0 0 
91 1 1 7.85105 10.3974 46.9812 0 0 0 
94 1 1 8.43658 11.1326 50.4996 0 0 0 
95 2 1 11.964 10.1934 49.6019 0 0 0 
97 1 1 9.02211 11.8678 54.018 0 0 0 
96 3 1 15.5513 9.22257 50.4271 0 0 0 
99 3 1 2.18652 11.1034 57.1316 0 0 0 
98 2 1 5.63259 11.8093 55.8893 0 0 0 
100 1 1 9.60764 12.6029 57.5364 0 0 0 
101 2 1 13.1351 11.6638 56.6387 0 0 0 
102 3 1 16.7223 10.6929 57.4639 0 0 0 
ITEM: TIMESTEP
100000
ITEM: NUMBER OF ATOMS
102
ITEM: BOX BOUNDS pp pp pp
-145.782 145.782
-145.782 145.782
-145.782 145.782
ITEM: ATOMS id type mol x y z ix iy iz 
8 2 1 33.9934 -7.04562 -33.5973 0 0 0 
9 3 1 30.5955 -6.70163 -34.0249 0 0 0 
1 1 1 41.3164 -10.4955 -38.8227 0 0 0 
2 2 1 43.7482 -7.50381 -39.6894 0 0 0 
7 1 1 37.805 -5.5801 -34.0259 0 0 0 
6 3 1 45.782 -5.62487 -33.1764 0 0 0 
5 2 1 42.3761 -6.18594 -34.3679 0 0 0 
4 1 1 39.9121 -8.04059 -36.179 0 0 0 
3 3 1 45.1079 -4.08814 -39.7234 0 0 0 
21 3 1 24.3285 6.12958 -23.7224 0 0 0 
20 2 1 25.3788 2.70054 -23.7278 0 0 0 
19 1 1 26.7681 -0.480874 -25.6601 0 0 0 
13 1 1 33.3236 -0.767157 -30.0411 0 0 0 
16 1 1 30.1582 -0.0614956 -27.742 0 0 0 
15 3 1 35.3413 6.03008 -28.0869 0 0 0 
12 3 1 40.6355 2.49724 -29.2519 0 0 0 
14 2 1 33.226 3.26206 -29.7363 0 0 0 
10 1 1 36.2088 -2.69521 -31.988 0 0 0 
11 2 1 37.7712 0.88158 -31.1731 0 0 0 
48 3 1 -2.63844 5.92864 -13.7152 0 0 0 
30 3 1 14.9301 5.67114 -27.4045 0 0 0 
34 1 1 10.4253 2.30319 -18.5971 0 0 0 
35 2 1 9.34685 6.0716 -17.6701 0 0 0 
36 3 1 10.8535 8.01994 -20.4873 0 0 0 
31 1 1 13.334 1.48221 -20.9335 0 0 0 
37 1 1 7.77529 2.34789 -15.7823 0 0 0 
29 2 1 15.1787 2.71469 -25.3035 0 0 0 
26 2 1 17.921 -4.50323 -21.4634 0 0 0 
25 1 1 19.8546 -1.9805 -22.8482 0 0 0 
28 1 1 16.6194 0.0703875 -22.5813 0 0 0 
17 2 1 30.4696 3.70058 -25.9812 0 0 0 
22 1 1 23.5143 -1.83116 -24.0336 0 0 0 
18 3 1 31.7982 6.87785 -25.1245 0 0 0 
24 3 1 24.6188 -6.98359 -18.8014 0 0 0 
23 2 1 23.3425 -5.30149 -21.8046 0 0 0 
42 3 1 -2.34805 0.203493 -17.064 0 0 0 
45 3 1 2.25704 -0.54691 -4.05423 0 0 0 
39 3 1 10.7284 -1.68899 -10.1366 0 0 0 
54 3 1 -13.5116 -2.39864 -3.92677 0 0 0 
47 2 1 -4.77572 3.14672 -12.1626 0 0 0 
49 1 1 -5.2079 0.624155 -7.64641 0 0 0 
53 2 1 -10.0918 -2.84905 -4.58327 0 0 0 
52 1 1 -6.84623 -0.291353 -4.30133 0 0 0 
50 2 1 -9.21087 0.709018 -8.15959 0 0 0 
51 3 1 -12.5736 -0.893705 -9.19298 0 0 0 
41 2 1 0.824015 1.84434 -15.9985 0 0 0 
46 1 1 -2.07121 1.33211 -9.91129 0 0 0 
43 1 1 1.48892 1.64408 -11.3324 0 0 0 
40 1 1 4.3618 1.98703 -13.977 0 0 0 
44 2 1 1.99388 0.194678 -7.57629 0 0 0 
32 2 1 12.4604 -1.33562 -18.0658 0 0 0 
38 2 1 9.20347 0.807452 -12.5664 0 0 0 
27 3 1 16.1374 -5.50428 -18.1361 0 0 0 
33 3 1 9.15424 -2.61738 -17.578 0 0 0 
57 3 1 -8.77331 -0.531227 5.2245 0 0 0 
60 3 1 -14.0501 -9.10214 -0.21517 0 0 0 
59 2 1 -13.2327 -5.51789 1.02635 0 0 0 
55 1 1 -7.82504 -1.05932 -0.707676 0 0 0 
56 2 1 -6.33335 0.165022 2.76781 0 0 0 
58 1 1 -10.2652 -2.97181 1.63456 0 0 0 
69 3 1 -19.6859 -9.6831 13.5436 0 0 0 
68 2 1 -16.7931 -7.31017 13.9429 0 0 0 
63 3 1 -14.3535 -10.8272 6.70429 0 0 0 
62 2 1 -12.1977 -8.04993 6.08544 0 0 0 
61 1 1 -11.534 -4.27573 4.99298 0 0 0 
67 1 1 -14.2667 -4.90088 11.996 0 0 0 
64 1 1 -12.6174 -4.39843 8.50631 0 0 0 
65 2 1 -11.0791 -1.36682 10.7 0 0 0 
66 3 1 -8.42358 0.968719 12.1484 0 0 0 
75 3 1 -20.1503 -8.61576 22.0097 0 0 0 
76 1 1 -18.147 -1.36655 22.4583 0 0 0 
73 1 1 -16.606 -2.72813 19.1025 0 0 0 
74 2 1 -19.0476 -5.66631 20.6346 0 0 0 
70 1 1 -14.9196 -3.33241 15.5559 0 0 0 
71 2 1 -12.2758 -0.786439 17.1981 0 0 0 
72 3 1 -9.41794 0.039888 19.3825 0 0 0 
81 3 1 -20.2445 -8.16127 29.0574 0 0 0 
80 2 1 -20.9032 -5.14889 27.1644 0 0 0 
86 2 1 -22.797 5.6499 31.0687 0 0 0 
87 3 1 -19.1438 6.6057 30.0904 0 0 0 
79 1 1 -20.3105 -1.6455 25.7163 0 0 0 
77 2 1 -18.3855 2.44203 23.3257 0 0 0 
85 1 1 -23.5017 1.76655 31.7548 0 0 0 
82 1 1 -22.1136 -0.486073 28.7528 0 0 0 
84 3 1 -24.7546 -5.88082 31.1355 0 0 0 
83 2 1 -25.2958 -2.36949 30.565 0 0 0 
93 3 1 -22.8284 12.7848 35.9221 0 0 0 
78 3 1 -19.206 5.99404 24.0567 0 0 0 
88 1 1 -25.1862 3.54384 34.7062 0 0 0 
91 1 1 -26.217 6.29135 37.3394 0 0 0 
90 3 1 -31.1228 1.56678 39.2242 0 0 0 
89 2 1 -28.4026 2.02487 36.7295 0 0 0 
95 2 1 -25.7964 10.178 42.7593 0 0 0 
94 1 1 -28.12 8.06789 40.2007 0 0 0 
92 2 1 -24.5173 9.96512 37.1985 0 0 0 
96 3 1 -22.5851 10.801 44.5452 0 0 0 
97 1 1 -30.9779 9.14361 42.7644 0 0 0 
100 1 1 -34.5378 9.51368 44.398 0 0 0 
102 3 1 -37.0741 9.90968 51.4827 0 0 0 
99 3 1 -31.2466 9.88912 49.3536 0 0 0 
101 2 1 -36.1499 10.693 47.89 0 0 0 
98 2 1 -30.1508 11.3509 46.0456 0 0 0 
ITEM: TIMESTEP
200000
ITEM: NUMBER OF ATOMS
102
ITEM: BOX BOUNDS pp pp pp
-145.782 145.782
-145.782 145.782
-145.782 145.782
ITEM: ATOMS id type mol x y z ix iy iz 
21 3 1 31.8598 11.6114 -0.858206 0 0 0 
57 3 1 -6.58869 -0.73755 -3.63157 0 0 0 
56 2 1 -5.01099 -3.49128 -1.58436 0 0 0 
48 3 1 4.83208 -4.08015 -13.7657 0 0 0 
51 3 1 -0.941675 -2.62871 -10.1656 0 0 0 
50 2 1 0.720141 -3.27903 -7.01254 0 0 0 
49 1 1 3.42783 -5.9013 -5.74329 0 0 0 
47 2 1 5.61402 -5.55236 -10.2898 0 0 0 
46 1 1 7.18622 -5.44264 -6.56642 0 0 0 
63 3 1 -14.1833 -0.969159 1.26244 0 0 0 
62 2 1 -11.6743 -3.87411 1.84361 0 0 0 
45 3 1 10.5889 -4.23881 -13.2703 0 0 0 
44 2 1 11.4592 -5.08473 -9.52538 0 0 0 
25 1 1 30.8793 2.05142 -2.38392 0 0 0 
27 3 1 33.6125 -4.88108 -1.30246 0 0 0 
22 1 1 32.4091 5.17941 -4.01193 0 0 0 
26 2 1 32.8144 -1.18812 -1.05544 0 0 0 
20 2 1 33.051 9.47393 -3.40266 0 0 0 
15 3 1 36.5677 15.5702 -2.07253 0 0 0 
14 2 1 37.1145 14.0535 -5.65625 0 0 0 
19 1 1 35.2483 7.47141 -5.268 0 0 0 
16 1 1 38.0038 9.44374 -7.07356 0 0 0 
13 1 1 40.249 12.4441 -7.69288 0 0 0 
9 3 1 38.2046 19.1719 -9.81899 0 0 0 
10 1 1 43.1817 14.6251 -8.62571 0 0 0 
8 2 1 41.811 19.026 -10.6205 0 0 0 
7 1 1 45.4496 17.5401 -9.63364 0 0 0 
73 1 1 -23.3956 -3.81608 5.29057 0 0 0 
68 2 1 -18.5284 -7.88519 8.46502 0 0 0 
67 1 1 -16.4387 -6.44108 5.28334 0 0 0 
66 3 1 -15.5062 -13.2964 7.61478 0 0 0 
65 2 1 -13.6054 -10.3314 6.56775 0 0 0 
69 3 1 -20.5881 -10.4763 10.1556 0 0 0 
58 1 1 -6.61913 -8.15172 -0.581962 0 0 0 
64 1 1 -12.9873 -7.45132 3.73866 0 0 0 
59 2 1 -7.20989 -12.0583 0.122031 0 0 0 
61 1 1 -9.73875 -7.52764 1.53528 0 0 0 
60 3 1 -9.66813 -13.8777 1.99841 0 0 0 
55 1 1 -3.48045 -6.84111 -2.6333 0 0 0 
52 1 1 -0.104567 -6.74467 -4.4468 0 0 0 
53 2 1 -1.24858 -10.4327 -3.62039 0 0 0 
54 3 1 -2.26927 -13.9063 -3.98329 0 0 0 
43 1 1 11.0318 -5.30038 -5.64416 0 0 0 
40 1 1 14.271 -5.42385 -3.82001 0 0 0 
41 2 1 11.8279 -8.22613 -2.74565 0 0 0 
42 3 1 10.661 -11.0515 -0.98298 0 0 0 
39 3 1 15.4711 -12.2719 -3.1134 0 0 0 
38 2 1 16.3378 -8.94238 -2.55366 0 0 0 
35 2 1 20.3148 -8.01098 0.0532869 0 0 0 
87 3 1 -36.2706 3.09222 13.6261 0 0 0 
81 3 1 -30.3517 6.42354 5.99887 0 0 0 
72 3 1 -20.7519 2.39921 9.81035 0 0 0 
71 2 1 -20.0711 -0.419232 7.21678 0 0 0 
70 1 1 -19.6202 -4.16699 5.69082 0 0 0 
37 1 1 17.8542 -5.23383 -2.51186 0 0 0 
36 3 1 23.2924 -9.99764 -0.245771 0 0 0 
31 1 1 24.7479 -2.47238 -0.595772 0 0 0 
34 1 1 21.3348 -4.26888 -1.28131 0 0 0 
33 3 1 26.5998 -5.47954 5.21989 0 0 0 
32 2 1 24.0352 -5.12498 2.40683 0 0 0 
28 1 1 27.8458 -0.193803 -1.08337 0 0 0 
29 2 1 27.8616 -0.703675 2.81542 0 0 0 
30 3 1 26.485 -0.309413 5.99556 0 0 0 
23 2 1 28.4665 5.8309 -3.39789 0 0 0 
24 3 1 24.9842 4.95663 -2.29253 0 0 0 
18 3 1 39.6198 3.03587 -8.24323 0 0 0 
17 2 1 37.3791 5.99756 -9.19434 0 0 0 
12 3 1 44.035 7.2115 -7.30192 0 0 0 
5 2 1 49.342 15.3917 -7.25829 0 0 0 
6 3 1 51.0741 12.689 -5.29616 0 0 0 
11 2 1 44.7746 10.9769 -7.98204 0 0 0 
4 1 1 49.2122 18.5371 -9.93163 0 0 0 
2 2 1 53.4997 17.7296 -7.13051 0 0 0 
3 3 1 52.6304 17.7289 -3.69639 0 0 0 
1 1 1 52.773 19.6617 -10.6756 0 0 0 
83 2 1 -36.8881 -2.32667 3.07728 0 0 0 
84 3 1 -38.5625 -5.11446 1.12594 0 0 0 
75 3 1 -27.1013 -10.1009 3.96259 0 0 0 
78 3 1 -32.4236 -8.05097 3.36909 0 0 0 
77 2 1 -29.5372 -5.71113 3.91303 0 0 0 
74 2 1 -25.1028 -7.29419 5.23178 0 0 0 
100 1 1 -56.1987 1.71999 7.82223 0 0 0 
94 1 1 -48.9427 -0.0588298 8.38566 0 0 0 
97 1 1 -52.7705 0.47499 9.07304 0 0 0 
91 1 1 -45.2668 -0.52471 9.28816 0 0 0 
96 3 1 -50.0018 -0.508072 0.834204 0 0 0 
95 2 1 -50.0094 -0.45313 4.69343 0 0 0 
86 2 1 -37.608 1.38183 10.7913 0 0 0 
82 1 1 -34.2202 -0.847851 5.90645 0 0 0 
92 2 1 -46.2628 0.198733 12.5425 0 0 0 
88 1 1 -41.6867 -1.04368 7.95875 0 0 0 
85 1 1 -37.8823 -0.421216 7.30626 0 0 0 
89 2 1 -44.0593 -2.57773 5.16547 0 0 0 
76 1 1 -27.0584 -2.82529 5.51639 0 0 0 
80 2 1 -30.979 2.71288 6.31283 0 0 0 
79 1 1 -30.4524 -1.3413 5.85521 0 0 0 
98 2 1 -55.1123 -0.0105629 12.284 0 0 0 
99 3 1 -55.3409 0.806347 15.6441 0 0 0 
93 3 1 -47.6322 -0.392438 15.658 0 0 0 
90 3 1 -45.4898 -4.13781 2.24178 0 0 0 
102 3 1 -57.8928 6.17871 2.22638 0 0 0 
101 2 1 -55.9265 4.24213 4.69646 0 0 0 
ITEM: TIMESTEP
300000
ITEM: NUMBER OF ATOMS
102
ITEM: BOX BOUNDS pp pp pp
-145.782 145.782
-145.782 145.782
-145.782 145.782
ITEM: ATOMS id type mol x y z ix iy iz 
84 3 1 -34.7105 -10.98 -14.4005 0 0 0 
78 3 1 -31.502 -3.83084 -17.664 0 0 0 
75 3 1 -25.6555 -4.25595 -18.8533 0 0 0 
74 2 1 -25.0305 -3.74556 -15.4518 0 0 0 
69 3 1 -17.8991 -1.92164 -18.4934 0 0 0 
68 2 1 -16.7828 -1.06466 -15.348 0 0 0 
66 3 1 -13.4096 -5.28105 -16.3015 0 0 0 
65 2 1 -12.4847 -2.14212 -14.9888 0 0 0 
99 3 1 -44.1739 -19.6984 -15.6199 0 0 0 
98 2 1 -46.9749 -17.5018 -14.7646 0 0 0 
100 1 1 -51.2382 -18.2348 -12.0295 0 0 0 
97 1 1 -48.3882 -15.6096 -11.3361 0 0 0 
89 2 1 -42.812 -6.25629 -5.21803 0 0 0 
90 3 1 -44.0171 -4.37343 -2.48104 0 0 0 
101 2 1 -52.7846 -20.0092 -8.73118 0 0 0 
94 1 1 -46.3083 -12.7478 -9.86274 0 0 0 
95 2 1 -48.708 -14.1903 -7.52456 0 0 0 
91 1 1 -43.7571 -10.1324 -8.47919 0 0 0 
88 1 1 -40.7093 -7.57059 -8.27416 0 0 0 
85 1 1 -37.4939 -5.71903 -8.76011 0 0 0 
86 2 1 -38.7343 -4.40184 -5.53119 0 0 0 
83 2 1 -35.3997 -8.24057 -12.191 0 0 0 
77 2 1 -28.9067 -3.9493 -14.7157 0 0 0 
82 1 1 -33.9468 -5.03131 -10.051 0 0 0 
79 1 1 -30.5136 -3.55873 -10.1994 0 0 0 
76 1 1 -27.1017 -3.05931 -11.7463 0 0 0 
80 2 1 -32.0045 -3.38434 -6.54633 0 0 0 
72 3 1 -23.0741 -2.86025 -4.51714 0 0 0 
73 1 1 -23.2579 -2.68587 -11.9344 0 0 0 
71 2 1 -20.921 -2.51455 -7.47878 0 0 0 
70 1 1 -19.4569 -2.1848 -11.1739 0 0 0 
63 3 1 -12.3585 3.01504 -5.41001 0 0 0 
67 1 1 -15.6626 -1.82001 -11.5221 0 0 0 
62 2 1 -10.4685 1.85341 -8.47379 0 0 0 
64 1 1 -11.8605 -1.11528 -11.0877 0 0 0 
61 1 1 -8.19481 -0.105988 -10.2232 0 0 0 
58 1 1 -4.30317 -0.0677154 -9.88397 0 0 0 
59 2 1 -4.91499 0.952916 -13.6881 0 0 0 
55 1 1 -0.92529 -0.558522 -7.88579 0 0 0 
56 2 1 -3.64262 0.885467 -5.25641 0 0 0 
52 1 1 2.54562 -1.39276 -6.52626 0 0 0 
60 3 1 -6.19237 3.14186 -16.3407 0 0 0 
54 3 1 2.50191 -7.48739 -11.0893 0 0 0 
53 2 1 2.23967 -4.58675 -9.00606 0 0 0 
51 3 1 7.03788 -1.91147 -11.382 0 0 0 
50 2 1 6.56739 -1.85581 -7.91581 0 0 0 
48 3 1 11.1842 0.968829 -8.48986 0 0 0 
102 3 1 -53.15 -20.6303 -5.30851 0 0 0 
96 3 1 -50.4452 -15.0397 -4.33214 0 0 0 
92 2 1 -46.5459 -10.9889 -5.77657 0 0 0 
93 3 1 -47.5193 -11.2407 -2.08306 0 0 0 
87 3 1 -38.8029 -2.27831 -2.29704 0 0 0 
81 3 1 -32.786 -5.76043 -3.98934 0 0 0 
57 3 1 -7.0785 -0.310586 -4.83668 0 0 0 
45 3 1 3.20569 1.53083 2.74764 0 0 0 
44 2 1 6.58016 0.375802 2.65479 0 0 0 
43 1 1 10.4975 0.427058 1.46749 0 0 0 
40 1 1 12.9528 0.704396 4.31489 0 0 0 
49 1 1 5.87171 -0.662227 -4.59004 0 0 0 
47 2 1 10.3804 -0.71429 -5.53799 0 0 0 
46 1 1 8.58168 -0.104048 -1.90723 0 0 0 
38 2 1 13.0126 2.59763 8.09684 0 0 0 
39 3 1 10.7612 5.01621 9.22781 0 0 0 
33 3 1 20.6976 7.50582 10.186 0 0 0 
42 3 1 7.59159 -1.18935 9.14389 0 0 0 
41 2 1 9.6902 -0.963304 6.16654 0 0 0 
37 1 1 16.2252 1.20726 6.19891 0 0 0 
36 3 1 17.3661 -5.95262 4.55212 0 0 0 
34 1 1 20.0009 0.791756 6.98328 0 0 0 
35 2 1 18.9516 -2.51096 5.09507 0 0 0 
31 1 1 23.72 0.712045 8.33236 0 0 0 
29 2 1 27.5547 -3.00226 8.84978 0 0 0 
28 1 1 27.1752 0.801364 10.1901 0 0 0 
30 3 1 28.6427 -5.55794 6.79446 0 0 0 
24 3 1 31.0424 -5.52148 16.1024 0 0 0 
22 1 1 32.9908 2.02309 14.9407 0 0 0 
25 1 1 29.9534 1.6078 12.7297 0 0 0 
23 2 1 31.9741 -1.90588 14.9859 0 0 0 
32 2 1 21.5593 4.06987 9.09448 0 0 0 
26 2 1 27.1184 4.56541 13.0339 0 0 0 
27 3 1 26.9387 7.42276 15.014 0 0 0 
15 3 1 33.2087 9.28879 13.593 0 0 0 
14 2 1 35.2174 11.1814 16.1795 0 0 0 
6 3 1 35.1662 15.6803 14.6999 0 0 0 
5 2 1 37.2374 18.7609 13.8942 0 0 0 
20 2 1 35.4166 1.33431 19.1609 0 0 0 
21 3 1 35.9386 -1.80764 20.41 0 0 0 
18 3 1 39.5623 3.80263 23.0733 0 0 0 
17 2 1 38.1419 5.5802 20.3236 0 0 0 
12 3 1 46.1894 11.9921 19.3985 0 0 0 
19 1 1 35.3943 4.55997 16.5943 0 0 0 
11 2 1 43.3299 12.2338 17.2998 0 0 0 
10 1 1 41.0039 14.3537 15.7792 0 0 0 
16 1 1 37.3869 7.73366 17.3354 0 0 0 
13 1 1 38.7519 11.3193 16.6708 0 0 0 
8 2 1 45.3279 16.3735 14.3479 0 0 0 
9 3 1 48.9614 17.5948 14.6085 0 0 0 
7 1 1 41.4528 17.9014 14.5839 0 0 0 
4 1 1 39.9898 21.4266 13.9338 0 0 0 
3 3 1 48.0621 24.9367 12.9625 0 0 0 
2 2 1 44.2728 24.0548 13.3321 0 0 0 
1 1 1 40.3852 25.3245 13.6821 0 0 0 
ITEM: TIMESTEP
400000
ITEM: NUMBER OF ATOMS
102
ITEM: BOX BOUNDS pp pp pp
-145.782 145.782
-145.782 145.782
-145.782 145.782
ITEM: ATOMS id type mol x y z ix iy iz 
102 3 1 -26.6191 10.5994 -48.8107 0 0 0 
101 2 1 -27.6724 8.68579 -46.1596 0 0 0 
100 1 1 -29.9542 6.21921 -43.7933 0 0 0 
98 2 1 -29.1252 9.70241 -40.5385 0 0 0 
99 3 1 -29.2353 12.8507 -42.5004 0 0 0 
97 1 1 -28.5334 6.10612 -40.1763 0 0 0 
91 1 1 -25.5209 3.1537 -33.7232 0 0 0 
88 1 1 -24.1816 1.05653 -30.7677 0 0 0 
89 2 1 -23.9335 -1.79194 -33.7003 0 0 0 
90 3 1 -23.9332 -5.57312 -33.5533 0 0 0 
84 3 1 -16.9167 -5.38041 -26.5994 0 0 0 
93 3 1 -30.5667 6.65952 -29.8777 0 0 0 
92 2 1 -28.2425 5.7546 -32.2782 0 0 0 
96 3 1 -21.3323 8.81772 -39.1738 0 0 0 
95 2 1 -23.6675 6.05133 -38.9609 0 0 0 
94 1 1 -26.9501 4.83395 -36.8655 0 0 0 
78 3 1 -21.2668 -11.0918 -19.0784 0 0 0 
77 2 1 -21.0222 -7.63206 -20.225 0 0 0 
76 1 1 -20.6569 -5.09761 -17.2882 0 0 0 
72 3 1 -17.8921 -14.1721 -15.8203 0 0 0 
79 1 1 -21.5532 -2.86148 -20.2425 0 0 0 
80 2 1 -22.8224 1.07178 -20.7458 0 0 0 
82 1 1 -22.1361 -1.6203 -23.892 0 0 0 
81 3 1 -22.3659 4.51246 -19.9339 0 0 0 
86 2 1 -25.5723 3.34237 -26.6665 0 0 0 
85 1 1 -23.2152 0.0445848 -27.1154 0 0 0 
83 2 1 -20.1872 -3.96914 -26.539 0 0 0 
87 3 1 -28.1317 5.95469 -25.4345 0 0 0 
69 3 1 -13.5144 -14.5233 -12.5756 0 0 0 
68 2 1 -15.7441 -13.1475 -9.69459 0 0 0 
71 2 1 -17.067 -11.0121 -14.498 0 0 0 
67 1 1 -17.1106 -10.2734 -7.35497 0 0 0 
73 1 1 -19.5272 -6.7439 -13.8221 0 0 0 
70 1 1 -18.2038 -9.06605 -11.0273 0 0 0 
75 3 1 -22.6554 -0.508489 -11.5424 0 0 0 
74 2 1 -21.9664 -3.54513 -12.9529 0 0 0 
66 3 1 -20.5463 -16.6337 -3.80505 0 0 0 
65 2 1 -17.9425 -13.9274 -4.1449 0 0 0 
62 2 1 -17.5087 -11.2341 0.587459 0 0 0 
64 1 1 -15.9004 -10.686 -3.66562 0 0 0 
61 1 1 -14.2074 -10.3828 -0.213195 0 0 0 
63 3 1 -20.2389 -11.3686 2.99238 0 0 0 
60 3 1 -9.27805 -8.8487 -4.17571 0 0 0 
59 2 1 -9.55334 -9.91862 -0.570353 0 0 0 
48 3 1 -2.22579 -14.8776 11.0116 0 0 0 
58 1 1 -11.7684 -9.882 2.72666 0 0 0 
57 3 1 -15.756 -12.3559 9.32333 0 0 0 
56 2 1 -13.4801 -10.3172 7.58875 0 0 0 
53 2 1 -9.83313 -6.47884 10.4924 0 0 0 
54 3 1 -12.8627 -4.30358 11.3061 0 0 0 
55 1 1 -9.99165 -9.04917 6.1486 0 0 0 
52 1 1 -7.19579 -7.48641 8.42452 0 0 0 
50 2 1 -5.78471 -4.08399 11.312 0 0 0 
47 2 1 -1.6084 -11.2072 10.1756 0 0 0 
49 1 1 -3.50257 -6.83737 9.89599 0 0 0 
46 1 1 0.20469 -7.53129 10.9324 0 0 0 
43 1 1 3.82437 -7.1824 12.1272 0 0 0 
44 2 1 1.81335 -3.89224 12.5781 0 0 0 
42 3 1 5.78673 -14.3095 12.6647 0 0 0 
41 2 1 7.12453 -11.0498 12.2148 0 0 0 
40 1 1 7.38758 -7.23456 13.3322 0 0 0 
37 1 1 10.8562 -6.1742 14.6902 0 0 0 
38 2 1 12.5182 -9.96213 14.6749 0 0 0 
39 3 1 13.9945 -13.296 15.4341 0 0 0 
33 3 1 18.9051 -9.4482 16.2789 0 0 0 
34 1 1 13.2773 -3.3931 15.8923 0 0 0 
32 2 1 17.6977 -5.99817 15.952 0 0 0 
31 1 1 16.6848 -2.16502 17.1045 0 0 0 
20 2 1 24.2135 7.93173 18.9249 0 0 0 
21 3 1 21.9839 10.8482 18.5918 0 0 0 
15 3 1 28.2002 14.1891 14.2414 0 0 0 
12 3 1 34.1302 16.5701 14.3603 0 0 0 
51 3 1 -8.12847 -1.10867 11.898 0 0 0 
45 3 1 1.37909 -0.0617531 12.527 0 0 0 
35 2 1 9.63955 -1.6772 15.6919 0 0 0 
36 3 1 6.338 -0.585289 16.4645 0 0 0 
27 3 1 24.6658 -6.33782 17.0805 0 0 0 
26 2 1 23.8032 -2.58462 16.7771 0 0 0 
28 1 1 19.7404 -0.446609 18.9078 0 0 0 
25 1 1 23.3229 1.12567 18.4184 0 0 0 
24 3 1 28.9705 -2.77355 15.6089 0 0 0 
23 2 1 27.4902 0.732722 15.9935 0 0 0 
29 2 1 16.6409 -0.607593 21.6206 0 0 0 
30 3 1 14.699 -0.685146 24.6508 0 0 0 
22 1 1 26.211 3.66884 18.5842 0 0 0 
19 1 1 28.1939 6.7989 19.3997 0 0 0 
17 2 1 32.3298 5.2442 20.3533 0 0 0 
16 1 1 31.1489 9.07307 19.9214 0 0 0 
14 2 1 29.9463 13.28 17.1289 0 0 0 
13 1 1 32.7095 12.5648 19.9863 0 0 0 
11 2 1 33.8519 16.754 17.8971 0 0 0 
10 1 1 34.3221 16.0082 21.2647 0 0 0 
8 2 1 37.0909 19.5647 19.1885 0 0 0 
7 1 1 35.9712 18.9434 23.2177 0 0 0 
3 3 1 34.7238 25.1993 22.7866 0 0 0 
9 3 1 38.5479 19.9418 16.066 0 0 0 
2 2 1 36.4004 25.2085 26.253 0 0 0 
18 3 1 32.5978 3.04058 23.0284 0 0 0 
6 3 1 33.9384 14.5256 28.4624 0 0 0 
5 2 1 34.079 17.9687 27.6519 0 0 0 
4 1 1 36.1781 20.6838 26.6607 0 0 0 
1 1 1 37.3457 22.9769 29.5121 0 0 0 
ITEM: TIMESTEP
500000
ITEM: NUMBER OF ATOMS
102
ITEM: BOX BOUNDS pp pp pp
-145.782 145.782
-145.782 145.782
-145.782 145.782
ITEM: ATOMS id type mol x y z ix iy iz 
102 3 1 -38.2041 -9.79141 -38.2108 0 0 0 
101 2 1 -35.8854 -7.87081 -36.32 0 0 0 
96 3 1 -29.9505 -11.8047 -28.4022 0 0 0 
95 2 1 -28.5137 -9.05157 -30.0314 0 0 0 
99 3 1 -33.6758 -12.2259 -33.1024 0 0 0 
98 2 1 -32.3408 -9.05536 -32.3864 0 0 0 
100 1 1 -32.8713 -5.40506 -35.0205 0 0 0 
97 1 1 -29.649 -6.20903 -33.1982 0 0 0 
94 1 1 -25.9961 -6.37573 -31.625 0 0 0 
86 2 1 -15.8992 -5.94458 -27.9205 0 0 0 
92 2 1 -22.7059 -9.33819 -28.777 0 0 0 
93 3 1 -21.516 -12.6404 -28.7558 0 0 0 
91 1 1 -22.3249 -5.63501 -30.4116 0 0 0 
87 3 1 -13.8186 -8.85714 -26.7016 0 0 0 
85 1 1 -15.6018 -2.03819 -28.8172 0 0 0 
90 3 1 -21.968 2.15237 -33.3296 0 0 0 
88 1 1 -19.0841 -3.37926 -30.191 0 0 0 
89 2 1 -20.7828 -0.955856 -32.3296 0 0 0 
83 2 1 -14.664 2.77363 -28.5472 0 0 0 
82 1 1 -12.1357 -0.436493 -28.1347 0 0 0 
79 1 1 -8.61526 0.336002 -26.7111 0 0 0 
80 2 1 -7.75515 -1.51655 -29.6757 0 0 0 
81 3 1 -6.99283 -2.04947 -33.4802 0 0 0 
84 3 1 -15.108 5.88903 -30.4316 0 0 0 
76 1 1 -6.24123 2.06396 -24.1551 0 0 0 
75 3 1 -5.43585 -4.4441 -23.1777 0 0 0 
74 2 1 -3.45639 -1.5134 -23.1309 0 0 0 
73 1 1 -3.05561 2.31102 -21.8828 0 0 0 
70 1 1 -0.641661 4.20651 -19.5436 0 0 0 
64 1 1 5.60924 4.41604 -15.2398 0 0 0 
60 3 1 11.3613 4.7124 -17.6156 0 0 0 
78 3 1 -11.8641 7.22919 -23.0228 0 0 0 
77 2 1 -9.04867 5.06509 -24.0671 0 0 0 
72 3 1 -5.58976 9.34416 -21.928 0 0 0 
69 3 1 2.33801 12.4032 -17.7662 0 0 0 
67 1 1 2.70814 5.25498 -17.7392 0 0 0 
71 2 1 -3.85601 6.4974 -20.0985 0 0 0 
68 2 1 1.96502 9.09319 -18.7479 0 0 0 
66 3 1 8.67755 11.005 -17.8536 0 0 0 
65 2 1 6.81454 7.69571 -17.0259 0 0 0 
63 3 1 2.05704 -0.68782 -10.3358 0 0 0 
61 1 1 8.18164 2.92907 -12.8104 0 0 0 
62 2 1 5.16209 0.305514 -12.4626 0 0 0 
58 1 1 11.6083 3.32761 -11.0043 0 0 0 
55 1 1 14.6863 2.86194 -8.8896 0 0 0 
56 2 1 16.0346 4.38239 -12.0117 0 0 0 
54 3 1 21.928 4.94749 -10.5189 0 0 0 
53 2 1 19.4803 3.73512 -8.46522 0 0 0 
52 1 1 16.9638 1.96249 -5.89342 0 0 0 
51 3 1 22.103 -1.61717 -7.5766 0 0 0 
59 2 1 10.8008 5.59185 -14.3439 0 0 0 
57 3 1 18.6382 6.67145 -13.5997 0 0 0 
48 3 1 21.857 -5.11583 -2.02586 0 0 0 
46 1 1 17.1913 0.0431872 1.4265 0 0 0 
47 2 1 19.0088 -3.15486 -0.336855 0 0 0 
50 2 1 21.1991 0.445557 -4.47819 0 0 0 
49 1 1 18.0602 0.794853 -2.25515 0 0 0 
44 2 1 17.0394 -3.66767 4.45545 0 0 0 
42 3 1 17.7064 5.37274 2.0664 0 0 0 
45 3 1 17.2936 -7.44686 5.47367 0 0 0 
37 1 1 13.5134 3.24229 11.8248 0 0 0 
34 1 1 11.4023 4.45537 14.7545 0 0 0 
40 1 1 14.9938 2.0858 8.34789 0 0 0 
41 2 1 16.0818 4.33568 5.19356 0 0 0 
43 1 1 16.0221 0.157978 5.1595 0 0 0 
38 2 1 15.8448 0.496904 12.6247 0 0 0 
39 3 1 17.8819 -2.6038 12.1209 0 0 0 
35 2 1 10.7255 7.03038 11.7108 0 0 0 
36 3 1 9.61618 7.36711 8.39266 0 0 0 
33 3 1 5.79423 9.51963 13.204 0 0 0 
24 3 1 2.81446 -0.338561 23.105 0 0 0 
28 1 1 8.58701 4.63901 21.7183 0 0 0 
26 2 1 12.2355 2.34965 23.8929 0 0 0 
27 3 1 15.2048 2.56969 21.5596 0 0 0 
30 3 1 3.11688 7.10063 17.2362 0 0 0 
32 2 1 8.11002 7.18602 15.2117 0 0 0 
29 2 1 5.90003 6.83661 19.5243 0 0 0 
31 1 1 9.71652 5.08824 18.113 0 0 0 
18 3 1 6.8172 -5.58898 31.5198 0 0 0 
17 2 1 3.61802 -3.61385 31.0887 0 0 0 
16 1 1 3.8995 -1.3236 34.3175 0 0 0 
23 2 1 5.14563 1.49961 25.3997 0 0 0 
25 1 1 8.59411 3.26211 25.3464 0 0 0 
19 1 1 5.83524 1.09826 32.0529 0 0 0 
22 1 1 7.41171 2.25773 28.7734 0 0 0 
20 2 1 7.70428 4.46985 33.4556 0 0 0 
21 3 1 9.6192 7.30908 31.6255 0 0 0 
4 1 1 -6.7219 -5.07768 43.5008 0 0 0 
8 2 1 -0.649923 -7.28461 43.7461 0 0 0 
7 1 1 -3.29157 -5.23805 41.7737 0 0 0 
11 2 1 3.39723 -5.15929 40.4982 0 0 0 
12 3 1 5.62679 -5.7167 43.1377 0 0 0 
6 3 1 -6.79714 -0.67376 37.3951 0 0 0 
5 2 1 -7.68545 -3.4519 39.9375 0 0 0 
15 3 1 -2.06368 2.4902 38.03 0 0 0 
14 2 1 1.07478 1.47225 36.9906 0 0 0 
13 1 1 1.67107 -2.53746 37.1994 0 0 0 
10 1 1 -0.0820868 -4.56806 39.8787 0 0 0 
3 3 1 -5.84058 -11.5776 46.9073 0 0 0 
2 2 1 -8.47437 -9.02007 46.4428 0 0 0 
9 3 1 0.493043 -10.4277 45.6477 0 0 0 
1 1 1 -9.19981 -4.91826 46.5011 0 0 0 
ITEM: TIMESTEP
600000
ITEM: NUMBER OF ATOMS
102
ITEM: BOX BOUNDS pp pp pp
-145.782 145.782
-145.782 145.782
-145.782 145.782
ITEM: ATOMS id type mol x y z ix iy iz 
102 3 1 7.20288 -3.56426 -55.5711 0 0 0 
101 2 1 3.83667 -4.04867 -54.526 0 0 0 
100 1 1 0.657395 -2.84989 -52.4496 0 0 0 
90 3 1 0.177219 -8.23994 -35.7612 0 0 0 
96 3 1 1.37822 -10.4989 -48.5375 0 0 0 
95 2 1 -0.638774 -7.81967 -47.4854 0 0 0 
98 2 1 -0.887251 0.263342 -49.2035 0 0 0 
97 1 1 -0.332887 -3.68075 -48.7746 0 0 0 
94 1 1 -1.57681 -5.03518 -45.3346 0 0 0 
99 3 1 1.68578 1.12671 -46.7964 0 0 0 
89 2 1 -2.8323 -7.78114 -38.0717 0 0 0 
93 3 1 1.00325 1.01098 -40.6402 0 0 0 
83 2 1 -5.62857 0.358333 -31.9573 0 0 0 
88 1 1 -5.0121 -4.50739 -38.3139 0 0 0 
85 1 1 -6.94416 -3.32344 -35.3617 0 0 0 
84 3 1 -2.52925 0.12751 -34.2216 0 0 0 
92 2 1 -0.591247 -2.02579 -42.1977 0 0 0 
91 1 1 -3.15245 -5.18609 -41.7299 0 0 0 
87 3 1 -7.50848 3.32552 -38.5693 0 0 0 
86 2 1 -6.81191 -0.159053 -37.9596 0 0 0 
81 3 1 -16.0367 -4.71276 -32.8923 0 0 0 
78 3 1 -2.57176 -0.625478 -25.1317 0 0 0 
75 3 1 -15.7531 3.61999 -23.9403 0 0 0 
82 1 1 -8.50107 -2.61971 -32.0005 0 0 0 
80 2 1 -13.0865 -3.75737 -31.2514 0 0 0 
77 2 1 -6.3163 -0.58289 -25.5638 0 0 0 
76 1 1 -10.2822 -1.49687 -24.9124 0 0 0 
79 1 1 -10.3427 -2.50481 -28.6876 0 0 0 
69 3 1 -5.19287 0.949886 -20.6543 0 0 0 
72 3 1 -17.5513 3.21563 -17.019 0 0 0 
74 2 1 -14.5444 0.547921 -22.5888 0 0 0 
73 1 1 -11.1763 -0.931168 -21.2403 0 0 0 
71 2 1 -15.1478 0.170611 -17.1691 0 0 0 
67 1 1 -9.01181 -1.26375 -14.2367 0 0 0 
70 1 1 -11.1088 -0.871609 -17.3776 0 0 0 
68 2 1 -6.65644 -1.00027 -17.6067 0 0 0 
63 3 1 0.314531 -5.09118 -15.8059 0 0 0 
60 3 1 3.25722 -7.83842 -10.9669 0 0 0 
65 2 1 -10.2182 -2.67541 -10.0849 0 0 0 
64 1 1 -6.5777 -1.86103 -11.3286 0 0 0 
59 2 1 1.16738 -5.73696 -8.60613 0 0 0 
58 1 1 -0.106358 -1.91552 -7.29535 0 0 0 
61 1 1 -2.9567 -2.18511 -9.78836 0 0 0 
62 2 1 -2.01228 -3.27537 -13.5794 0 0 0 
56 2 1 -0.273664 3.21217 -7.53982 0 0 0 
55 1 1 1.99541 0.768618 -5.26265 0 0 0 
53 2 1 1.88624 5.06347 -5.21672 0 0 0 
66 3 1 -12.8612 -3.46483 -7.76944 0 0 0 
57 3 1 -1.81859 3.82244 -10.629 0 0 0 
54 3 1 1.77971 7.75321 -7.43964 0 0 0 
52 1 1 3.95596 2.81859 -2.74367 0 0 0 
45 3 1 6.99698 -1.22658 2.28633 0 0 0 
49 1 1 6.02848 3.70758 0.202838 0 0 0 
46 1 1 8.03345 3.89346 3.49927 0 0 0 
51 3 1 10.0773 7.56659 -5.45139 0 0 0 
50 2 1 7.87681 5.33694 -3.13428 0 0 0 
47 2 1 8.82057 7.64993 1.97445 0 0 0 
48 3 1 9.53101 10.0661 -0.741419 0 0 0 
36 3 1 13.4684 -6.0151 14.095 0 0 0 
43 1 1 9.76222 3.11001 6.91239 0 0 0 
40 1 1 10.7739 3.21508 10.6586 0 0 0 
41 2 1 12.4188 6.21745 9.35462 0 0 0 
44 2 1 7.76724 -0.17487 5.62811 0 0 0 
38 2 1 14.0007 4.39899 13.6057 0 0 0 
42 3 1 14.1343 9.591 9.65533 0 0 0 
35 2 1 11.2702 -2.95613 14.9446 0 0 0 
30 3 1 7.51421 -8.38501 23.5701 0 0 0 
39 3 1 16.7821 6.86512 13.8882 0 0 0 
37 1 1 10.8648 1.84689 14.3026 0 0 0 
34 1 1 9.97844 -0.00906825 17.5841 0 0 0 
31 1 1 8.51064 -0.438757 21.1235 0 0 0 
32 2 1 6.77731 2.68116 19.3885 0 0 0 
33 3 1 5.12123 5.85426 19.567 0 0 0 
24 3 1 7.40082 -6.41115 30.6987 0 0 0 
23 2 1 5.27812 -3.4997 29.5859 0 0 0 
29 2 1 6.95413 -4.62231 23.8282 0 0 0 
28 1 1 7.78196 -0.711133 24.9413 0 0 0 
25 1 1 6.89636 0.234133 28.5712 0 0 0 
26 2 1 9.38192 3.03655 27.8578 0 0 0 
27 3 1 11.0535 6.32871 28.0548 0 0 0 
22 1 1 4.6693 -0.107335 31.6512 0 0 0 
12 3 1 -7.35869 2.82428 37.3359 0 0 0 
19 1 1 2.53707 0.98812 34.6974 0 0 0 
16 1 1 -0.0446762 1.40103 37.665 0 0 0 
17 2 1 -2.17622 0.565984 34.3071 0 0 0 
18 3 1 -4.89595 0.824271 32.1099 0 0 0 
13 1 1 -1.79187 1.7708 41.0758 0 0 0 
11 2 1 -6.22983 3.41541 40.8142 0 0 0 
14 2 1 1.77529 0.588154 41.3066 0 0 0 
21 3 1 7.75885 5.02711 32.5793 0 0 0 
20 2 1 5.26928 3.81262 34.5517 0 0 0 
15 3 1 4.63648 -1.0401 42.613 0 0 0 
9 3 1 -11.1977 -0.386769 44.8177 0 0 0 
8 2 1 -8.812 1.75267 46.3107 0 0 0 
10 1 1 -4.13424 2.68362 43.9832 0 0 0 
7 1 1 -5.04423 2.52957 47.7102 0 0 0 
6 3 1 2.79981 4.29952 48.1464 0 0 0 
5 2 1 -0.609641 2.93435 49.507 0 0 0 
4 1 1 -3.97635 2.89009 51.4465 0 0 0 
1 1 1 -4.12614 2.24607 55.105 0 0 0 
2 2 1 -2.51198 -1.14514 53.9032 0 0 0 
3 3 1 -1.43624 -3.505 51.0437 0 0 0 
ITEM: TIMESTEP
700000
ITEM: NUMBER OF ATOMS
102
ITEM: BOX BOUNDS pp pp pp
-145.782 145.782
-145.782 145.782
-145.782 145.782
ITEM: ATOMS id type mol x y z ix iy iz 
102 3 1 15.3757 -12.9659 -55.2089 0 0 0 
101 2 1 14.8841 -10.648 -52.2244 0 0 0 
99 3 1 18.2451 -14.9034 -41.637 0 0 0 
98 2 1 17.2674 -11.8525 -43.3597 0 0 0 
100 1 1 16.9117 -10.8436 -48.6137 0 0 0 
97 1 1 15.1208 -9.18594 -45.5669 0 0 0 
90 3 1 15.1792 1.63736 -40.1586 0 0 0 
94 1 1 12.5196 -6.7003 -44.098 0 0 0 
95 2 1 11.7236 -6.4992 -47.9436 0 0 0 
96 3 1 9.34895 -7.16751 -50.632 0 0 0 
81 3 1 3.16703 -9.45681 -33.0748 0 0 0 
88 1 1 8.99736 -1.4197 -39.5211 0 0 0 
89 2 1 11.8897 0.732672 -41.0561 0 0 0 
91 1 1 10.5105 -4.11678 -41.9751 0 0 0 