ITEM: TIMESTEP
0
ITEM: NUMBER OF ATOMS
108
ITEM: BOX BOUNDS pp pp pp
-148.587 148.587
-148.587 148.587
-148.587 148.587
ITEM: ATOMS id type mol x y z ix iy iz 
3 3 1 -17.136 -13.157 -58.9757 0 0 0 
1 1 1 -10.3004 -12.3926 -62.0892 0 0 0 
2 2 1 -13.6899 -12.4511 -60.2179 0 0 0 
4 1 1 -9.71487 -11.6575 -58.5708 0 0 0 
5 2 1 -6.18741 -12.5966 -59.4685 0 0 0 
6 3 1 -2.60019 -13.5675 -58.6433 0 0 0 
9 3 1 -15.9649 -11.6867 -51.9389 0 0 0 
7 1 1 -9.12934 -10.9223 -55.0524 0 0 0 
8 2 1 -12.5189 -10.9808 -53.1811 0 0 0 
10 1 1 -8.54381 -10.1871 -51.534 0 0 0 
13 1 1 -7.95828 -9.45196 -48.0156 0 0 0 
14 2 1 -11.3478 -9.51044 -46.1443 0 0 0 
11 2 1 -5.01635 -11.1263 -52.4317 0 0 0 
12 3 1 -1.42913 -12.0972 -51.6065 0 0 0 
15 3 1 -14.7939 -10.2164 -44.9021 0 0 0 
16 1 1 -7.37275 -8.7168 -44.4972 0 0 0 
19 1 1 -6.78722 -7.98163 -40.9788 0 0 0 
20 2 1 -10.1767 -8.04012 -39.1075 0 0 0 
21 3 1 -13.6228 -8.74604 -37.8652 0 0 0 
22 1 1 -6.20169 -7.24647 -37.4604 0 0 0 
17 2 1 -3.84528 -9.65598 -45.3949 0 0 0 
18 3 1 -0.258066 -10.6268 -44.5697 0 0 0 
23 2 1 -2.67422 -8.18566 -38.3581 0 0 0 
24 3 1 0.912995 -9.15652 -37.5329 0 0 0 
25 1 1 -5.61616 -6.51131 -33.942 0 0 0 
26 2 1 -9.00567 -6.56979 -32.0707 0 0 0 
27 3 1 -12.4517 -7.27571 -30.8284 0 0 0 
28 1 1 -5.03063 -5.77614 -30.4236 0 0 0 
29 2 1 -1.50316 -6.71533 -31.3213 0 0 0 
30 3 1 2.08406 -7.68619 -30.4962 0 0 0 
31 1 1 -4.4451 -5.04098 -26.9052 0 0 0 
33 3 1 -11.2807 -5.80539 -23.7916 0 0 0 
35 2 1 -0.332099 -5.245 -24.2845 0 0 0 
36 3 1 3.25512 -6.21586 -23.4593 0 0 0 
32 2 1 -7.83461 -5.09946 -25.0339 0 0 0 
38 2 1 -6.66355 -3.62914 -17.9971 0 0 0 
39 3 1 -10.1096 -4.33506 -16.7548 0 0 0 
34 1 1 -3.85956 -4.30582 -23.3868 0 0 0 
37 1 1 -3.27403 -3.57065 -19.8684 0 0 0 
40 1 1 -2.6885 -2.83549 -16.35 0 0 0 
41 2 1 0.838961 -3.77467 -17.2477 0 0 0 
42 3 1 4.42618 -4.74554 -16.4225 0 0 0 
44 2 1 -5.49249 -2.15881 -10.9603 0 0 0 
45 3 1 -8.93856 -2.86473 -9.71804 0 0 0 
43 1 1 -2.10297 -2.10033 -12.8316 0 0 0 
46 1 1 -1.51744 -1.36516 -9.31319 0 0 0 
47 2 1 2.01002 -2.30435 -10.2109 0 0 0 
49 1 1 -0.931911 -0.629998 -5.79479 0 0 0 
48 3 1 5.59724 -3.27521 -9.38575 0 0 0 
51 3 1 -7.7675 -1.3944 -2.68124 0 0 0 
57 3 1 -6.59644 0.075921 4.35556 0 0 0 
50 2 1 -4.32143 -0.688482 -3.92353 0 0 0 
52 1 1 -0.34638 0.105164 -2.27638 0 0 0 
53 2 1 3.18108 -0.83402 -3.17409 0 0 0 
55 1 1 0.23915 0.840328 1.24202 0 0 0 
56 2 1 -3.15037 0.781844 3.11327 0 0 0 
58 1 1 0.82468 1.57549 4.76042 0 0 0 
59 2 1 4.35215 0.636306 3.86271 0 0 0 
54 3 1 6.7683 -1.80488 -2.34895 0 0 0 
60 3 1 7.93936 -0.334554 4.68786 0 0 0 
63 3 1 -5.42537 1.54625 11.3924 0 0 0 
61 1 1 1.41021 2.31066 8.27882 0 0 0 
62 2 1 -1.97931 2.25217 10.1501 0 0 0 
64 1 1 1.99574 3.04582 11.7972 0 0 0 
67 1 1 2.58127 3.78098 15.3156 0 0 0 
65 2 1 5.52321 2.10663 10.8995 0 0 0 
66 3 1 9.11042 1.13577 11.7247 0 0 0 
68 2 1 -0.808244 3.7225 17.1869 0 0 0 
69 3 1 -4.25431 3.01658 18.4292 0 0 0 
70 1 1 3.1668 4.51615 18.834 0 0 0 
75 3 1 -3.08325 4.4869 25.466 0 0 0 
71 2 1 6.69427 3.57696 17.9363 0 0 0 
72 3 1 10.2815 2.6061 18.7614 0 0 0 
77 2 1 7.86533 5.04729 24.9731 0 0 0 
73 1 1 3.75233 5.25131 22.3524 0 0 0 
74 2 1 0.362816 5.19283 24.2237 0 0 0 
78 3 1 11.4525 4.07643 25.7983 0 0 0 
76 1 1 4.33786 5.98647 25.8708 0 0 0 
79 1 1 4.9234 6.72164 29.3892 0 0 0 
80 2 1 1.53388 6.66315 31.2605 0 0 0 
81 3 1 -1.91219 5.95723 32.5028 0 0 0 
82 1 1 5.50893 7.4568 32.9076 0 0 0 
83 2 1 9.03639 6.51761 32.0099 0 0 0 
84 3 1 12.6236 5.54675 32.8351 0 0 0 
86 2 1 2.70494 8.13348 38.2973 0 0 0 
87 3 1 -0.74113 7.42756 39.5396 0 0 0 
92 2 1 3.876 9.60381 45.3341 0 0 0 
85 1 1 6.09446 8.19196 36.426 0 0 0 
88 1 1 6.67999 8.92713 39.9444 0 0 0 
89 2 1 10.2074 7.98794 39.0467 0 0 0 
90 3 1 13.7947 7.01708 39.8719 0 0 0 
91 1 1 7.26552 9.66229 43.4628 0 0 0 
95 2 1 11.3785 9.45827 46.0835 0 0 0 
93 3 1 0.429931 8.89788 46.5764 0 0 0 
98 2 1 5.04706 11.0741 52.3709 0 0 0 
99 3 1 1.60099 10.3682 53.6132 0 0 0 
94 1 1 7.85105 10.3974 46.9812 0 0 0 
96 3 1 14.9657 8.48741 46.9087 0 0 0 
97 1 1 8.43658 11.1326 50.4996 0 0 0 
100 1 1 9.02211 11.8678 54.018 0 0 0 
101 2 1 12.5496 10.9286 53.1203 0 0 0 
102 3 1 16.1368 9.95773 53.9455 0 0 0 
105 3 1 2.77205 11.8385 60.65 0 0 0 
103 1 1 9.60764 12.6029 57.5364 0 0 0 
104 2 1 6.21812 12.5445 59.4077 0 0 0 
106 1 1 10.1932 13.3381 61.0548 0 0 0 
107 2 1 13.7206 12.3989 60.1571 0 0 0 
108 3 1 17.3078 11.4281 60.9823 0 0 0 
ITEM: TIMESTEP
100000
ITEM: NUMBER OF ATOMS
108
ITEM: BOX BOUNDS pp pp pp
-148.587 148.587
-148.587 148.587
-148.587 148.587
ITEM: ATOMS id type mol x y z ix iy iz 
1 1 1 28.2404 10.666 -52.2684 0 0 0 
15 3 1 17.3167 7.39045 -39.9716 0 0 0 
12 3 1 32.8678 9.25067 -36.5394 0 0 0 
11 2 1 29.8882 8.16518 -38.2307 0 0 0 
9 3 1 20.3329 11.1342 -42.3154 0 0 0 
13 1 1 24.8307 6.89943 -37.9396 0 0 0 
8 2 1 23.9805 10.6739 -43.1766 0 0 0 
10 1 1 26.8502 8.1849 -41.035 0 0 0 
14 2 1 20.793 7.5039 -38.2896 0 0 0 
4 1 1 28.7012 9.99047 -48.2827 0 0 0 
3 3 1 34.3159 14.9771 -50.9126 0 0 0 
2 2 1 31.0941 13.057 -50.5954 0 0 0 
5 2 1 32.19 10.3766 -46.5659 0 0 0 
6 3 1 35.5139 10.1938 -45.6041 0 0 0 
7 1 1 27.4609 9.20281 -44.649 0 0 0 
21 3 1 15.7414 1.97934 -29.1128 0 0 0 
25 1 1 21.2909 -0.163509 -24.7926 0 0 0 
20 2 1 18.9162 3.68022 -29.9099 0 0 0 
16 1 1 23.6209 5.25916 -34.6519 0 0 0 
22 1 1 23.0092 1.75514 -27.719 0 0 0 
19 1 1 22.7738 3.53024 -31.2546 0 0 0 
17 2 1 26.8412 3.24572 -33.3403 0 0 0 
24 3 1 29.4978 1.49383 -24.2006 0 0 0 
23 2 1 26.1964 0.269096 -25.6865 0 0 0 
18 3 1 27.7786 1.61943 -30.528 0 0 0 
31 1 1 16.4854 -3.88216 -19.9795 0 0 0 
34 1 1 15.1492 -6.67469 -17.7168 0 0 0 
32 2 1 17.8197 -7.68127 -20.0477 0 0 0 
27 3 1 25.1274 -5.95806 -21.4696 0 0 0 
33 3 1 17.9137 -11.1704 -21.5565 0 0 0 
39 3 1 12.0074 -2.82274 -9.44965 0 0 0 
30 3 1 11.6421 2.06821 -22.506 0 0 0 
28 1 1 18.3385 -1.34206 -22.5084 0 0 0 
29 2 1 14.921 0.735654 -22.5553 0 0 0 
26 2 1 23.065 -2.80294 -22.3128 0 0 0 
43 1 1 10.4452 -11.9325 -8.28463 0 0 0 
46 1 1 8.39453 -13.9363 -5.46849 0 0 0 
40 1 1 12.0915 -10.5334 -11.5724 0 0 0 
42 3 1 11.2547 -17.8581 -9.83024 0 0 0 
37 1 1 13.551 -8.18498 -14.4311 0 0 0 
41 2 1 12.3123 -14.6108 -11.7749 0 0 0 
36 3 1 15.5438 -13.9709 -15.4978 0 0 0 
35 2 1 15.075 -10.7605 -17.5871 0 0 0 
45 3 1 11.7727 -7.73192 -2.6907 0 0 0 
38 2 1 11.9268 -5.61038 -11.7536 0 0 0 
44 2 1 10.0534 -9.77961 -4.88129 0 0 0 
55 1 1 3.91577 -9.86686 3.66628 0 0 0 
52 1 1 5.50231 -11.4898 0.613877 0 0 0 
53 2 1 7.36021 -8.09769 1.74026 0 0 0 
58 1 1 1.9355 -7.78119 6.18758 0 0 0 
56 2 1 2.234 -12.6615 6.14171 0 0 0 
57 3 1 -1.0709 -13.4908 6.67286 0 0 0 
47 2 1 6.91214 -17.7723 -5.36636 0 0 0 
48 3 1 5.24567 -21.1758 -4.38652 0 0 0 
49 1 1 6.39809 -13.8876 -2.21223 0 0 0 
50 2 1 4.2917 -16.7635 -0.00259385 0 0 0 
51 3 1 1.67775 -17.4035 2.62591 0 0 0 
54 3 1 7.58087 -4.47407 2.97618 0 0 0 
63 3 1 -1.35068 -12.9942 12.5766 0 0 0 
66 3 1 -7.58395 -9.35656 15.3675 0 0 0 
67 1 1 -5.61969 -3.72076 14.0654 0 0 0 
65 2 1 -4.73075 -8.22929 13.4645 0 0 0 
64 1 1 -3.07935 -5.445 11.4675 0 0 0 
62 2 1 -1.27569 -9.65845 11.4319 0 0 0 
59 2 1 2.22151 -3.73205 6.05182 0 0 0 
61 1 1 -0.424996 -6.75516 8.98207 0 0 0 
60 3 1 1.7424 -0.389264 4.24673 0 0 0 
68 2 1 -6.71273 0.120325 13.8269 0 0 0 
69 3 1 -6.86962 3.51314 15.0929 0 0 0 
74 2 1 -13.5211 -6.53141 21.0629 0 0 0 
75 3 1 -14.9714 -8.44201 23.8699 0 0 0 
73 1 1 -11.2047 -3.56964 19.6398 0 0 0 
70 1 1 -8.34016 -3.31052 17.0325 0 0 0 
76 1 1 -13.6671 -2.26532 22.2998 0 0 0 
71 2 1 -9.64058 0.319695 18.2798 0 0 0 
86 2 1 -20.484 5.48991 28.7671 0 0 0 
77 2 1 -15.3829 1.32246 21.6788 0 0 0 
72 3 1 -8.86614 3.87918 19.213 0 0 0 
87 3 1 -19.3061 7.1483 25.8793 0 0 0 
80 2 1 -16.3401 -4.77277 27.7976 0 0 0 
81 3 1 -15.9118 -6.46993 31.2531 0 0 0 
79 1 1 -16.3593 -2.11272 25.1511 0 0 0 
82 1 1 -19.0808 -1.16838 27.7277 0 0 0 
83 2 1 -20.6786 -3.54 30.6931 0 0 0 
84 3 1 -21.9357 -6.50176 32.1196 0 0 0 
88 1 1 -24.3296 3.29108 31.0272 0 0 0 
85 1 1 -21.3438 1.50695 29.2589 0 0 0 
89 2 1 -27.7856 1.24658 31.6673 0 0 0 
78 3 1 -17.9775 3.61235 21.8176 0 0 0 
91 1 1 -26.8975 5.61974 32.7324 0 0 0 
93 3 1 -25.2226 7.61075 39.6257 0 0 0 
92 2 1 -26.9869 7.48795 36.327 0 0 0 
94 1 1 -30.4186 7.29104 32.847 0 0 0 
97 1 1 -33.5362 9.67653 33.303 0 0 0 
100 1 1 -35.339 13.1147 33.4116 0 0 0 
105 3 1 -35.5389 17.4073 25.4607 0 0 0 
104 2 1 -37.4867 17.2847 28.5245 0 0 0 
106 1 1 -37.9005 20.2245 32.3162 0 0 0 
103 1 1 -36.8065 16.5343 32.4833 0 0 0 
90 3 1 -30.167 -1.40801 32.5984 0 0 0 
98 2 1 -37.1003 9.11772 35.1713 0 0 0 
96 3 1 -36.6704 3.42985 30.1301 0 0 0 
95 2 1 -33.6134 4.92815 32.0424 0 0 0 
99 3 1 -40.2496 7.18658 35.6515 0 0 0 
108 3 1 -33.467 26.161 35.2337 0 0 0 
107 2 1 -35.1511 22.8607 34.0406 0 0 0 
101 2 1 -36.8272 14.2663 36.6226 0 0 0 
102 3 1 -39.7756 13.5017 38.7314 0 0 0 
ITEM: TIMESTEP
200000
ITEM: NUMBER OF ATOMS
108
ITEM: BOX BOUNDS pp pp pp
-148.587 148.587
-148.587 148.587
-148.587 148.587
ITEM: ATOMS id type mol x y z ix iy iz 
1 1 1 18.1172 -15.5821 -29.5089 0 0 0 
6 3 1 28.0244 -13.4545 -28.5635 0 0 0 
2 2 1 15.8715 -12.238 -30.4478 0 0 0 
3 3 1 13.4655 -9.34224 -30.5417 0 0 0 
5 2 1 24.4774 -12.9459 -29.4653 0 0 0 
4 1 1 20.4113 -12.5677 -29.1088 0 0 0 
7 1 1 21.442 -8.86329 -28.4896 0 0 0 
10 1 1 23.3147 -5.85153 -26.8715 0 0 0 
8 2 1 19.4734 -5.54362 -29.7398 0 0 0 
9 3 1 16.8748 -2.65486 -29.7524 0 0 0 
11 2 1 22.208 -2.03056 -27.9009 0 0 0 
13 1 1 25.7804 -4.19001 -24.2749 0 0 0 
14 2 1 27.1492 -7.06055 -21.8465 0 0 0 
15 3 1 28.17 -10.2022 -20.5998 0 0 0 
16 1 1 27.8837 -2.35115 -21.6224 0 0 0 
17 2 1 31.1312 -3.53683 -19.3483 0 0 0 
12 3 1 20.0211 1.03539 -28.9343 0 0 0 
20 2 1 28.1014 4.31228 -19.4342 0 0 0 
19 1 1 28.8966 0.634669 -19.3786 0 0 0 
21 3 1 26.5767 7.35582 -18.2769 0 0 0 
105 3 1 -52.189 -12.1527 -2.82554 0 0 0 
102 3 1 -49.1791 -15.3726 -0.091748 0 0 0 
18 3 1 34.8639 -4.2124 -19.0055 0 0 0 
22 1 1 30.7491 2.01478 -16.3155 0 0 0 
24 3 1 37.6809 -0.356643 -16.0562 0 0 0 
23 2 1 34.2181 0.0968286 -15.1026 0 0 0 
25 1 1 31.7943 3.66576 -13.0534 0 0 0 
26 2 1 35.6187 4.17859 -11.6083 0 0 0 
28 1 1 31.0314 5.19511 -9.64073 0 0 0 
27 3 1 38.9776 3.68556 -10.4049 0 0 0 
31 1 1 29.6322 6.50005 -6.26943 0 0 0 
29 2 1 34.4707 5.85667 -7.51915 0 0 0 
30 3 1 36.7147 6.47069 -4.47024 0 0 0 
32 2 1 31.7146 7.35896 -2.89632 0 0 0 
33 3 1 33.5719 6.27802 -0.0263335 0 0 0 
104 2 1 -51.8208 -10.4682 0.539702 0 0 0 
106 1 1 -53.0255 -6.94532 4.17247 0 0 0 
103 1 1 -49.6891 -8.51686 3.12993 0 0 0 
100 1 1 -45.7795 -9.23351 2.78127 0 0 0 
101 2 1 -47.4471 -11.9969 0.199483 0 0 0 
97 1 1 -42.0328 -8.92451 3.95192 0 0 0 
98 2 1 -43.0568 -12.7666 2.63337 0 0 0 
99 3 1 -44.4064 -16.168 3.27218 0 0 0 
93 3 1 -33.949 -13.885 4.52996 0 0 0 
108 3 1 -52.1901 -1.48614 8.95705 0 0 0 
107 2 1 -53.2859 -3.74606 6.61596 0 0 0 
92 2 1 -34.4077 -10.2419 4.5293 0 0 0 
87 3 1 -26.1393 -11.0561 5.55755 0 0 0 
38 2 1 20.7661 5.44268 -0.999386 0 0 0 
40 1 1 22.1816 8.10717 2.36219 0 0 0 
37 1 1 24.4532 7.18696 -0.625869 0 0 0 
34 1 1 27.2866 7.20055 -3.21624 0 0 0 
41 2 1 24.2134 8.63203 5.75531 0 0 0 
35 2 1 27.7632 10.4073 -0.984508 0 0 0 
42 3 1 25.9989 8.32473 9.10287 0 0 0 
36 3 1 30.1858 11.4591 1.5066 0 0 0 
96 3 1 -42.4834 -1.79434 6.19358 0 0 0 
95 2 1 -41.285 -5.09833 6.88139 0 0 0 
94 1 1 -38.5293 -7.71994 5.46215 0 0 0 
89 2 1 -33.0914 -2.30731 6.09789 0 0 0 
91 1 1 -34.8137 -6.83539 6.22188 0 0 0 
90 3 1 -32.2783 1.2416 5.06146 0 0 0 
83 2 1 -28.3288 -0.251756 10.3295 0 0 0 
88 1 1 -31.3625 -5.81905 7.32555 0 0 0 
86 2 1 -27.3988 -8.90855 7.95145 0 0 0 
85 1 1 -27.8744 -5.08955 9.08506 0 0 0 
82 1 1 -25.1943 -2.64442 10.8126 0 0 0 
77 2 1 -20.3036 2.0646 15.3635 0 0 0 
76 1 1 -18.1766 -0.328083 12.9766 0 0 0 
79 1 1 -21.9765 -1.26927 12.3683 0 0 0 
74 2 1 -16.3324 3.79119 15.1347 0 0 0 
73 1 1 -14.5063 0.643201 13.1782 0 0 0 
68 2 1 -9.78596 6.02424 12.6637 0 0 0 
53 2 1 8.0308 6.18771 9.06642 0 0 0 
54 3 1 7.88808 2.68389 7.37534 0 0 0 
39 3 1 17.3729 4.19234 -0.183849 0 0 0 
45 3 1 12.3027 5.31006 4.31516 0 0 0 
78 3 1 -21.4974 3.98847 18.3886 0 0 0 
75 3 1 -17.2539 6.81127 16.52 0 0 0 
69 3 1 -12.9152 7.90075 13.4167 0 0 0 
56 2 1 4.84814 10.7927 15.9468 0 0 0 
57 3 1 3.8749 12.2912 19.0584 0 0 0 
63 3 1 -5.87253 9.93154 14.8661 0 0 0 
51 3 1 13.988 11.9984 17.6872 0 0 0 
47 2 1 19.1824 10.7708 10.871 0 0 0 
50 2 1 13.7916 11.539 13.7915 0 0 0 
52 1 1 10.3986 8.57663 11.5303 0 0 0 
49 1 1 13.9371 9.45657 10.32 0 0 0 
55 1 1 6.93523 8.32092 13.3946 0 0 0 
43 1 1 19.2135 8.52478 4.86089 0 0 0 
44 2 1 15.4398 7.40569 4.00292 0 0 0 
46 1 1 16.9038 9.24909 7.86394 0 0 0 
48 3 1 20.7445 11.1596 14.0167 0 0 0 
66 3 1 -1.31446 -3.86799 13.7119 0 0 0 
84 3 1 -31.0191 2.25873 11.3955 0 0 0 
81 3 1 -27.0868 4.18918 14.5783 0 0 0 
80 2 1 -25.0986 1.18873 13.6236 0 0 0 
71 2 1 -10.3252 -2.81622 12.0377 0 0 0 
70 1 1 -10.5723 1.02359 13.1889 0 0 0 
67 1 1 -7.45234 2.98013 13.8304 0 0 0 
72 3 1 -9.46915 -5.56507 10.0248 0 0 0 
65 2 1 -3.15995 -0.568482 14.6494 0 0 0 
64 1 1 -3.61084 3.45905 14.191 0 0 0 
60 3 1 0.633247 3.23554 19.484 0 0 0 
58 1 1 3.59579 6.29047 14.3406 0 0 0 
59 2 1 3.28522 4.47618 17.2881 0 0 0 
61 1 1 -0.115424 5.14548 14.2789 0 0 0 
62 2 1 -2.86774 8.0179 13.6162 0 0 0 
ITEM: TIMESTEP
300000
ITEM: NUMBER OF ATOMS
108
ITEM: BOX BOUNDS pp pp pp
-148.587 148.587
-148.587 148.587
-148.587 148.587
ITEM: ATOMS id type mol x y z ix iy iz 
1 1 1 56.782 6.2255 -12.9988 0 0 0 
105 3 1 -55.4109 9.62073 -14.5114 0 0 0 
102 3 1 -49.9054 6.11204 -14.5294 0 0 0 
9 3 1 52.9111 -4.17962 -9.80508 0 0 0 
96 3 1 -45.3071 7.05777 -15.6175 0 0 0 
81 3 1 -34.5295 -5.68136 2.50049 0 0 0 
5 2 1 50.1265 6.89023 -9.55905 0 0 0 
6 3 1 48.0753 9.13347 -7.60477 0 0 0 
3 3 1 59.2442 -0.163096 -12.8229 0 0 0 
2 2 1 57.7701 2.61016 -11.3638 0 0 0 
10 1 1 49.058 1.24821 -6.4521 0 0 0 
8 2 1 52.6626 -0.967701 -8.17939 0 0 0 
7 1 1 51.8149 2.94241 -8.56025 0 0 0 
4 1 1 53.7589 5.20799 -10.7392 0 0 0 
107 2 1 -51.9979 18.9489 -17.2517 0 0 0 
108 3 1 -53.7684 18.9954 -20.6055 0 0 0 
106 1 1 -51.8221 17.4912 -13.4869 0 0 0 
103 1 1 -50.4112 14.1064 -12.0281 0 0 0 
104 2 1 -54.1969 12.6396 -12.3798 0 0 0 
100 1 1 -48.3011 11.4233 -10.2731 0 0 0 
101 2 1 -49.2745 9.82121 -13.8081 0 0 0 
98 2 1 -46.1349 11.7 -5.61271 0 0 0 
97 1 1 -46.0178 8.90548 -8.55234 0 0 0 
95 2 1 -45.7409 5.80135 -12.3287 0 0 0 
94 1 1 -44.0575 5.53667 -8.63679 0 0 0 
91 1 1 -41.3564 3.38352 -6.77564 0 0 0 
89 2 1 -41.1535 6.17909 -2.8758 0 0 0 
90 3 1 -44.3878 7.17218 -1.11494 0 0 0 
87 3 1 -35.9378 9.35923 -4.39985 0 0 0 
99 3 1 -48.2758 12.875 -2.78322 0 0 0 
60 3 1 -7.17628 -12.1636 14.8235 0 0 0 
74 2 1 -24.0657 -6.58785 3.52713 0 0 0 
69 3 1 -18.8589 -11.4734 -0.182803 0 0 0 
73 1 1 -21.8706 -3.93988 1.58916 0 0 0 
48 3 1 11.3271 -11.849 14.4378 0 0 0 
12 3 1 49.4521 -5.34213 -4.65198 0 0 0 
93 3 1 -41.8353 -1.54643 -11.0598 0 0 0 
92 2 1 -43.5237 1.004 -9.36878 0 0 0 
80 2 1 -32.1777 -4.9904 -0.378879 0 0 0 
79 1 1 -29.0708 -2.38467 -0.865667 0 0 0 
82 1 1 -32.1332 -0.270875 -2.07913 0 0 0 
85 1 1 -35.3601 1.76922 -2.83641 0 0 0 
76 1 1 -25.3769 -2.61883 0.322995 0 0 0 
71 2 1 -17.7408 -0.513801 1.94757 0 0 0 
78 3 1 -24.0064 3.98174 -2.38627 0 0 0 
77 2 1 -25.4255 1.34168 -0.704929 0 0 0 
72 3 1 -18.0505 3.13886 2.30864 0 0 0 
38 2 1 20.35 -2.84602 9.58647 0 0 0 
39 3 1 20.4281 -6.35541 8.97878 0 0 0 
33 3 1 25.6342 -2.48806 9.9009 0 0 0 
27 3 1 29.1567 -5.14989 5.82567 0 0 0 
21 3 1 37.9034 -3.44802 5.84663 0 0 0 
26 2 1 29.7839 -1.97227 4.09334 0 0 0 
20 2 1 38.494 -3.06146 2.1332 0 0 0 
15 3 1 43.7592 -3.64332 1.34544 0 0 0 
14 2 1 45.504 -1.49424 -1.41034 0 0 0 
13 1 1 45.4913 0.697628 -4.81989 0 0 0 
22 1 1 35.1 0.479866 0.0666331 0 0 0 
19 1 1 38.7291 -0.466425 -1.026 0 0 0 
16 1 1 41.7482 0.403471 -3.45239 0 0 0 
11 2 1 48.9607 -1.87813 -4.58082 0 0 0 
84 3 1 -28.4631 4.36804 -7.11913 0 0 0 
83 2 1 -30.8142 2.65548 -4.51997 0 0 0 
88 1 1 -38.4788 3.25892 -4.17916 0 0 0 
86 2 1 -35.1428 5.82885 -3.34603 0 0 0 
17 2 1 38.972 1.662 -5.99027 0 0 0 
18 3 1 40.2671 0.23782 -8.82465 0 0 0 
75 3 1 -25.8383 -9.62999 4.38525 0 0 0 
68 2 1 -17.6267 -9.04759 2.33327 0 0 0 
70 1 1 -18.2618 -4.42138 2.67691 0 0 0 
67 1 1 -15.2623 -6.49345 4.12206 0 0 0 
64 1 1 -11.9816 -6.88364 6.18784 0 0 0 
66 3 1 -16.877 -12.619 7.4554 0 0 0 
59 2 1 -7.09132 -9.32761 12.2545 0 0 0 
65 2 1 -14.6681 -9.58073 7.46203 0 0 0 
61 1 1 -8.30631 -7.43715 7.36493 0 0 0 
54 3 1 0.629352 -15.6308 8.83443 0 0 0 
53 2 1 1.42164 -11.9732 9.54267 0 0 0 
51 3 1 5.53512 -13.2028 14.4663 0 0 0 
52 1 1 3.01947 -8.18955 9.67394 0 0 0 
55 1 1 -0.814919 -7.76068 9.12242 0 0 0 
58 1 1 -4.79005 -8.00681 9.26705 0 0 0 
50 2 1 6.5356 -10.8906 11.592 0 0 0 
45 3 1 17.1314 -8.02084 14.8291 0 0 0 
47 2 1 10.6366 -9.40944 11.6978 0 0 0 
49 1 1 6.67349 -7.20721 10.2363 0 0 0 
44 2 1 14.8228 -6.29425 12.7717 0 0 0 
62 2 1 -8.17258 -7.9362 3.52863 0 0 0 
63 3 1 -8.07453 -9.88404 0.313027 0 0 0 
57 3 1 -3.98284 -3.61426 3.3687 0 0 0 
56 2 1 -1.88772 -5.34301 5.90916 0 0 0 
43 1 1 13.2961 -3.39401 10.4452 0 0 0 
46 1 1 10.1177 -5.64936 10.5372 0 0 0 
41 2 1 12.3868 2.03508 9.25433 0 0 0 
40 1 1 15.6154 -0.475989 9.36296 0 0 0 
37 1 1 19.2702 0.660626 8.41785 0 0 0 
36 3 1 22.1846 7.95737 11.9659 0 0 0 
35 2 1 20.5091 5.32732 9.62367 0 0 0 
34 1 1 22.2905 2.77001 7.22499 0 0 0 
25 1 1 31.8361 0.989587 2.04027 0 0 0 
28 1 1 28.4528 2.65048 2.8442 0 0 0 
32 2 1 25.1015 -0.685725 6.99577 0 0 0 
31 1 1 25.5893 2.7595 5.34714 0 0 0 
23 2 1 32.9018 3.36386 -1.55048 0 0 0 
24 3 1 29.3908 3.77498 -1.8302 0 0 0 
42 3 1 8.50076 1.88522 8.61996 0 0 0 
30 3 1 25.6809 9.10303 0.737327 0 0 0 
29 2 1 26.0395 5.68655 1.59406 0 0 0 
ITEM: TIMESTEP
400000
ITEM: NUMBER OF ATOMS
108
ITEM: BOX BOUNDS pp pp pp
-148.587 148.587
-148.587 148.587
-148.587 148.587
ITEM: ATOMS id type mol x y z ix iy iz 
60 3 1 -13.7919 -16.9233 -9.00121 0 0 0 
67 1 1 -18.2417 -6.45455 -3.18153 0 0 0 
59 2 1 -11.9825 -15.5506 -6.35217 0 0 0 
64 1 1 -15.3813 -8.96114 -4.55076 0 0 0 
57 3 1 -8.80959 -20.0343 -9.4712 0 0 0 
56 2 1 -7.42181 -16.5748 -8.42034 0 0 0 
54 3 1 -3.66323 -19.7113 -10.9315 0 0 0 
76 1 1 -26.4279 0.674758 0.0830418 0 0 0 
78 3 1 -32.9807 2.12338 2.97679 0 0 0 
79 1 1 -28.3446 3.98592 -0.546013 0 0 0 
77 2 1 -30.0178 -0.0208642 1.97371 0 0 0 
70 1 1 -20.1375 -3.48773 -1.76796 0 0 0 
89 2 1 -38.0919 12.5112 -0.850977 0 0 0 
84 3 1 -36.5638 9.43948 3.53293 0 0 0 
90 3 1 -41.6136 11.4641 -0.654256 0 0 0 
88 1 1 -34.5081 13.2644 -2.54396 0 0 0 
85 1 1 -32.2141 10.1741 -1.80664 0 0 0 
82 1 1 -30.8108 7.04223 -0.611402 0 0 0 
83 2 1 -33.6299 7.31974 2.27949 0 0 0 
86 2 1 -30.4348 11.9759 -5.08764 0 0 0 
93 3 1 -43.2385 16.7162 -5.32075 0 0 0 
96 3 1 -43.1097 23.8382 -3.34985 0 0 0 
95 2 1 -39.5571 22.4982 -4.36345 0 0 0 
92 2 1 -39.7561 17.3662 -4.18421 0 0 0 
94 1 1 -36.0824 20.7668 -4.01388 0 0 0 
87 3 1 -27.6674 12.9658 -7.60541 0 0 0 
91 1 1 -35.8723 16.848 -3.1012 0 0 0 
65 2 1 -17.8343 -8.62455 -7.71884 0 0 0 
66 3 1 -20.9262 -9.46392 -9.83056 0 0 0 
69 3 1 -25.1625 -8.71136 -4.21644 0 0 0 
68 2 1 -21.8822 -8.2776 -2.9884 0 0 0 
58 1 1 -8.79905 -13.1737 -5.49948 0 0 0 
62 2 1 -11.3466 -8.17749 -2.27891 0 0 0 
61 1 1 -12.0408 -10.8257 -4.9748 0 0 0 
53 2 1 -2.43478 -17.1933 -8.85324 0 0 0 
55 1 1 -5.12781 -14.2066 -5.93092 0 0 0 
52 1 1 -1.23958 -14.6949 -5.87395 0 0 0 
49 1 1 2.14561 -13.9453 -4.1693 0 0 0 
50 2 1 -0.396624 -16.1102 -1.81503 0 0 0 
48 3 1 6.39563 -17.1118 -9.59332 0 0 0 
42 3 1 12.9727 -15.3792 -6.33478 0 0 0 
47 2 1 5.7756 -14.9801 -6.86496 0 0 0 
46 1 1 5.72208 -13.3385 -3.12885 0 0 0 
43 1 1 9.16704 -12.8324 -1.5416 0 0 0 
41 2 1 13.4394 -12.8957 -3.95819 0 0 0 
33 3 1 21.4796 -5.89967 -3.6443 0 0 0 
12 3 1 47.6008 -11.9366 7.03616 0 0 0 
15 3 1 39.5205 -11.7342 6.0471 0 0 0 
14 2 1 42.0189 -9.17832 7.37336 0 0 0 
16 1 1 40.2531 -5.42107 8.86448 0 0 0 
13 1 1 44.0226 -5.75107 7.9931 0 0 0 
11 2 1 48.2524 -8.46946 7.7354 0 0 0 
9 3 1 54.1567 -7.56344 5.10676 0 0 0 
75 3 1 -26.438 -3.33305 5.78575 0 0 0 
71 2 1 -19.2239 0.364819 -3.00543 0 0 0 
73 1 1 -23.2563 -1.7213 -0.168531 0 0 0 
74 2 1 -24.5394 -1.68426 3.06882 0 0 0 
72 3 1 -17.9923 1.14716 -6.48717 0 0 0 
63 3 1 -10.9969 -6.09325 0.866317 0 0 0 
10 1 1 47.7562 -4.44327 7.23532 0 0 0 
5 2 1 51.5122 0.423472 2.65885 0 0 0 
8 2 1 52.8371 -4.72133 6.53708 0 0 0 
2 2 1 55.0443 4.91534 4.48075 0 0 0 
4 1 1 51.644 2.00212 6.46148 0 0 0 
7 1 1 50.2971 -1.58793 7.00361 0 0 0 
81 3 1 -25.9626 7.80789 -6.40958 0 0 0 
80 2 1 -27.7003 6.37213 -3.25289 0 0 0 
1 1 1 53.0658 5.26672 8.02543 0 0 0 
97 1 1 -35.3513 24.4747 -4.7706 0 0 0 
102 3 1 -41.7344 29.7446 -1.99899 0 0 0 
105 3 1 -40.1463 37.3456 -5.46867 0 0 0 
101 2 1 -39.6161 29.7093 -4.83906 0 0 0 
106 1 1 -33.3834 35.2373 -8.04695 0 0 0 
103 1 1 -34.5304 31.7658 -6.62314 0 0 0 
100 1 1 -35.9394 28.1688 -5.75302 0 0 0 
104 2 1 -37.1014 34.8301 -5.57271 0 0 0 
98 2 1 -31.7503 26.2763 -4.40315 0 0 0 
99 3 1 -28.9057 28.1307 -3.01159 0 0 0 
107 2 1 -30.3415 37.6987 -7.26052 0 0 0 
108 3 1 -27.6468 39.2993 -5.61801 0 0 0 
45 3 1 7.44216 -16.3299 4.73871 0 0 0 
44 2 1 7.09973 -14.5478 1.48783 0 0 0 
38 2 1 11.7455 -10.3547 4.54861 0 0 0 
39 3 1 9.66811 -11.3131 7.20005 0 0 0 
51 3 1 -2.93818 -16.8259 0.487277 0 0 0 
40 1 1 12.6225 -11.7698 -0.158423 0 0 0 
32 2 1 21.3249 -7.3395 -0.234325 0 0 0 
34 1 1 18.3463 -8.78941 3.66321 0 0 0 
31 1 1 21.8753 -7.47651 3.88592 0 0 0 
37 1 1 15.1404 -10.2693 2.33475 0 0 0 
35 2 1 16.4198 -8.96565 7.23862 0 0 0 
29 2 1 21.6423 -5.78308 8.4291 0 0 0 
21 3 1 36.2706 -8.17067 1.4023 0 0 0 
27 3 1 28.4226 -11.2237 1.53961 0 0 0 
26 2 1 28.4427 -8.32418 4.11207 0 0 0 
22 1 1 32.4181 -5.18808 7.80169 0 0 0 
25 1 1 28.6446 -5.58628 7.13311 0 0 0 
28 1 1 24.894 -6.39448 6.0246 0 0 0 
20 2 1 35.159 -7.05963 4.73844 0 0 0 
19 1 1 36.1881 -5.09013 8.28364 0 0 0 
23 2 1 30.7487 -2.87585 9.91293 0 0 0 
24 3 1 29.7805 -0.887249 13.0377 0 0 0 
17 2 1 39.6071 -4.79603 12.9548 0 0 0 
18 3 1 41.33 -4.03618 15.9544 0 0 0 
6 3 1 53.9383 -1.22857 0.512155 0 0 0 
3 3 1 57.7785 3.79616 2.02173 0 0 0 
36 3 1 16.4074 -10.3533 10.4566 0 0 0 
30 3 1 20.873 -4.87086 11.6023 0 0 0 
ITEM: TIMESTEP
500000
ITEM: NUMBER OF ATOMS
108
ITEM: BOX BOUNDS pp pp pp
-148.587 148.587
-148.587 148.587
-148.587 148.587
ITEM: ATOMS id type mol x y z ix iy iz 
78 3 1 -22.2508 3.07914 -17.9396 0 0 0 
108 3 1 -62.1295 15.2074 -21.265 0 0 0 
107 2 1 -59.3316 14.8315 -18.5921 0 0 0 
106 1 1 -56.7865 13.345 -15.6672 0 0 0 
95 2 1 -43.6094 14.0069 -15.8225 0 0 0 
91 1 1 -38.4521 9.27111 -15.4802 0 0 0 
89 2 1 -36.9623 12.4698 -19.3587 0 0 0 
90 3 1 -38.1819 13.7256 -22.5305 0 0 0 
88 1 1 -34.9595 9.85044 -16.8375 0 0 0 
85 1 1 -31.1236 10.2018 -17.1289 0 0 0 
86 2 1 -32.2516 12.0563 -19.9167 0 0 0 
87 3 1 -32.2852 11.4536 -23.4658 0 0 0 
82 1 1 -27.5714 9.64871 -15.9565 0 0 0 
80 2 1 -24.8361 13.3475 -16.2769 0 0 0 
77 2 1 -21.8293 6.04955 -15.7099 0 0 0 
96 3 1 -43.9145 17.43 -17.5278 0 0 0 
81 3 1 -27.1164 15.9879 -17.2936 0 0 0 
99 3 1 -48.7545 3.48502 -12.228 0 0 0 
93 3 1 -41.0572 2.96509 -11.8567 0 0 0 
84 3 1 -29.3508 2.6689 -14.6307 0 0 0 
69 3 1 -16.9773 5.11655 -13.7473 0 0 0 
60 3 1 -8.86156 -0.615248 -7.81804 0 0 0 
64 1 1 -8.33249 5.11872 -7.06958 0 0 0 
102 3 1 -54.422 5.97761 -11.3035 0 0 0 
103 1 1 -53.0612 13.3943 -14.5908 0 0 0 
101 2 1 -52.0392 8.78965 -12.2563 0 0 0 
100 1 1 -49.6104 11.6777 -13.9268 0 0 0 
98 2 1 -47.4287 7.07072 -12.3667 0 0 0 
97 1 1 -45.9362 10.4389 -14.2607 0 0 0 
94 1 1 -42.1715 10.4497 -15.077 0 0 0 
92 2 1 -39.6284 6.2329 -12.9023 0 0 0 
83 2 1 -29.2571 6.00928 -15.3445 0 0 0 
79 1 1 -23.7323 9.99826 -15.285 0 0 0 
73 1 1 -16.7675 10.5191 -12.3498 0 0 0 
76 1 1 -20.0766 9.3772 -14.0879 0 0 0 
74 2 1 -18.5343 14.0133 -13.2142 0 0 0 
71 2 1 -12.7512 13.3038 -11.4422 0 0 0 
65 2 1 -6.53856 8.51003 -8.25695 0 0 0 
70 1 1 -13.3647 9.48413 -10.7237 0 0 0 
66 3 1 -5.26776 11.7286 -8.44481 0 0 0 
67 1 1 -11.2428 6.68415 -9.15414 0 0 0 
68 2 1 -14.6099 5.16803 -10.9017 0 0 0 
63 3 1 -1.63936 8.76277 -6.05124 0 0 0 
62 2 1 -3.38851 5.77785 -5.76723 0 0 0 
104 2 1 -53.9182 17.3517 -14.0214 0 0 0 
105 3 1 -53.263 20.8998 -13.7063 0 0 0 
75 3 1 -20.6962 16.7594 -12.712 0 0 0 
72 3 1 -12.7824 17.1754 -10.7117 0 0 0 
57 3 1 -7.50212 -6.32767 1.27647 0 0 0 
59 2 1 -7.94814 -1.03213 -4.32779 0 0 0 
61 1 1 -6.02539 2.81741 -4.96359 0 0 0 
56 2 1 -6.15503 -2.90477 1.00107 0 0 0 
58 1 1 -4.76816 0.336401 -2.39517 0 0 0 
53 2 1 2.54083 0.843241 -0.898792 0 0 0 
55 1 1 -2.47434 -1.27088 0.138323 0 0 0 
52 1 1 0.979158 -1.88227 1.72903 0 0 0 
54 3 1 3.11268 4.29092 -2.385 0 0 0 
50 2 1 -1.12928 -4.28154 5.02767 0 0 0 
49 1 1 2.77426 -3.60146 4.66465 0 0 0 
45 3 1 10.5456 -0.430656 5.01482 0 0 0 
44 2 1 9.78723 -4.14438 4.58284 0 0 0 
33 3 1 20.4389 -15.9387 15.3678 0 0 0 
3 3 1 51.5504 -21.244 10.2844 0 0 0 
2 2 1 54.4798 -20.9773 12.8195 0 0 0 
47 2 1 1.98718 -6.09776 8.49837 0 0 0 
48 3 1 -1.16141 -8.38454 9.0174 0 0 0 
41 2 1 8.92693 -8.09305 12.7989 0 0 0 
43 1 1 9.08385 -6.42734 7.96282 0 0 0 
40 1 1 12.1423 -7.45787 10.3658 0 0 0 
42 3 1 5.3845 -9.09325 13.0522 0 0 0 
38 2 1 12.8104 -10.0069 14.3046 0 0 0 
34 1 1 19.3898 -7.92233 12.6193 0 0 0 
37 1 1 15.62 -8.13906 11.9693 0 0 0 
32 2 1 21.3573 -12.9759 13.8044 0 0 0 
31 1 1 23.0063 -9.271 12.9291 0 0 0 
25 1 1 30.6526 -8.9873 13.0338 0 0 0 
28 1 1 26.8292 -8.41338 12.7569 0 0 0 
22 1 1 34.4422 -8.57522 13.6895 0 0 0 
26 2 1 29.0924 -12.5353 12.0657 0 0 0 
27 3 1 28.44 -11.7297 8.6908 0 0 0 
19 1 1 38.3038 -8.92507 13.4131 0 0 0 
16 1 1 42.0989 -9.67423 14.2208 0 0 0 
17 2 1 42.0172 -5.49013 14.5212 0 0 0 
20 2 1 37.3218 -7.63273 9.55997 0 0 0 
51 3 1 -4.6016 -4.85913 6.69069 0 0 0 
46 1 1 5.65729 -5.12324 6.78249 0 0 0 
35 2 1 18.4305 -4.60671 12.0462 0 0 0 
36 3 1 18.8201 -0.868352 12.2345 0 0 0 
29 2 1 24.6973 -4.90242 12.3107 0 0 0 
30 3 1 23.571 -2.35048 10.2776 0 0 0 
21 3 1 38.8685 -4.47218 9.50448 0 0 0 
18 3 1 42.3033 -1.96114 13.8825 0 0 0 
5 2 1 54.0197 -16.3421 21.0323 0 0 0 
4 1 1 54.6561 -17.79 17.2795 0 0 0 
1 1 1 56.9677 -20.5449 15.8059 0 0 0 
39 3 1 10.8553 -12.8673 16.0634 0 0 0 
24 3 1 34.4944 -7.35359 20.915 0 0 0 
23 2 1 33.5118 -7.05393 17.3679 0 0 0 
13 1 1 45.6423 -10.8161 15.6437 0 0 0 
14 2 1 45.3344 -6.96104 16.6247 0 0 0 
15 3 1 43.5629 -5.23319 19.1798 0 0 0 
7 1 1 51.895 -14.9164 17.1059 0 0 0 
8 2 1 52.198 -11.8777 19.5853 0 0 0 
10 1 1 48.8555 -12.7639 16.5438 0 0 0 
9 3 1 53.0615 -8.12194 19.7971 0 0 0 
6 3 1 55.1315 -14.9637 24.1739 0 0 0 
11 2 1 47.7734 -10.4656 19.8083 0 0 0 
12 3 1 46.3084 -9.73407 22.8571 0 0 0 
ITEM: TIMESTEP
600000
ITEM: NUMBER OF ATOMS
108
ITEM: BOX BOUNDS pp pp pp
-148.587 148.587
-148.587 148.587
-148.587 148.587
ITEM: ATOMS id type mol x y z ix iy iz 
102 3 1 -51.407 12.4937 -30.2075 0 0 0 
108 3 1 -57.1955 7.81008 -28.2472 0 0 0 
107 2 1 -56.712 8.89469 -24.5755 0 0 0 
106 1 1 -53.7039 8.91614 -21.8144 0 0 0 
93 3 1 -34.9056 12.8902 -30.4267 0 0 0 
96 3 1 -44.2737 12.1794 -29.7985 0 0 0 
87 3 1 -27.8722 14.7486 -27.6703 0 0 0 
105 3 1 -48.5403 4.57789 -17.2418 0 0 0 
101 2 1 -49.8505 11.2316 -26.9542 0 0 0 
103 1 1 -49.9351 9.21998 -23.0535 0 0 0 
104 2 1 -49.5192 7.05709 -19.6221 0 0 0 
100 1 1 -46.7711 10.012 -25.1481 0 0 0 
99 3 1 -43.4154 5.54366 -20.0959 0 0 0 
98 2 1 -43.682 7.21393 -23.142 0 0 0 
92 2 1 -35.9386 13.9985 -27.3726 0 0 0 
97 1 1 -42.9649 10.4264 -25.5065 0 0 0 
95 2 1 -40.9552 10.5173 -29.1245 0 0 0 
94 1 1 -39.1631 10.9705 -25.5033 0 0 0 
91 1 1 -35.5303 11.4345 -24.2661 0 0 0 
89 2 1 -34.8799 9.22873 -19.5562 0 0 0 
85 1 1 -28.792 12.0461 -20.851 0 0 0 
88 1 1 -32.4087 11.4911 -21.9271 0 0 0 
86 2 1 -28.9053 13.6759 -24.5453 0 0 0 
82 1 1 -25.378 12.5331 -19.1024 0 0 0 
79 1 1 -22.6175 12.5264 -16.3111 0 0 0 
90 3 1 -37.9786 7.63879 -17.7905 0 0 0 
83 2 1 -25.3043 13.4194 -22.8491 0 0 0 
84 3 1 -22.8534 13.8201 -25.8148 0 0 0 
81 3 1 -18.5372 13.2388 -22.1502 0 0 0 
80 2 1 -20.548 12.1975 -19.4353 0 0 0 
72 3 1 -16.6638 4.93283 -14.4524 0 0 0 
78 3 1 -28.2392 13.3308 -12.7728 0 0 0 
77 2 1 -24.7359 13.5015 -12.2484 0 0 0 
73 1 1 -18.2282 11.5467 -10.5433 0 0 0 
76 1 1 -20.9509 12.342 -12.8564 0 0 0 
74 2 1 -21.3655 12.7701 -8.63181 0 0 0 
75 3 1 -23.1818 15.9519 -7.32043 0 0 0 
71 2 1 -16.0458 7.34389 -12.0861 0 0 0 
66 3 1 -9.33947 16.4525 -6.05383 0 0 0 
67 1 1 -10.8158 9.28442 -8.70074 0 0 0 
64 1 1 -7.15883 9.3257 -7.15282 0 0 0 
65 2 1 -8.2736 13.1648 -7.03645 0 0 0 
70 1 1 -14.539 10.1625 -9.77992 0 0 0 
68 2 1 -12.0918 6.6478 -11.4861 0 0 0 
60 3 1 0.718307 15.3158 -7.24062 0 0 0 
59 2 1 -0.110903 11.7296 -6.71211 0 0 0 
54 3 1 -0.953984 4.95754 1.19194 0 0 0 
52 1 1 5.1399 6.16324 0.898251 0 0 0 
53 2 1 1.49095 7.64618 1.70999 0 0 0 
46 1 1 10.0588 1.87708 4.82437 0 0 0 
49 1 1 7.42901 4.02161 3.14906 0 0 0 
42 3 1 17.1598 -1.61637 2.68479 0 0 0 
41 2 1 15.6123 -1.20284 6.20591 0 0 0 
47 2 1 11.9189 3.12786 1.24863 0 0 0 
48 3 1 12.9993 5.8697 -0.785288 0 0 0 
62 2 1 -5.12411 4.74986 -5.61322 0 0 0 
63 3 1 -6.90355 2.01576 -3.63753 0 0 0 
69 3 1 -11.566 3.06617 -12.9797 0 0 0 
56 2 1 5.10501 9.8028 -5.415 0 0 0 
61 1 1 -3.45233 8.45117 -5.78755 0 0 0 
58 1 1 0.246402 8.78066 -4.54146 0 0 0 
55 1 1 3.29405 7.90106 -2.13171 0 0 0 
57 3 1 7.38161 12.4303 -6.7665 0 0 0 
27 3 1 20.4713 -13.4554 21.3545 0 0 0 
40 1 1 13.7523 -2.97565 9.42504 0 0 0 
38 2 1 11.1834 -5.26949 11.9784 0 0 0 
32 2 1 18.6781 -8.12425 18.5793 0 0 0 
34 1 1 17.9015 -7.63105 13.9094 0 0 0 
37 1 1 15.357 -5.5195 11.8266 0 0 0 
35 2 1 19.2474 -5.50663 10.7064 0 0 0 
31 1 1 20.8285 -9.52728 15.468 0 0 0 
36 3 1 20.5127 -2.85644 8.8489 0 0 0 
30 3 1 26.3579 -8.33333 9.05141 0 0 0 
29 2 1 24.4407 -9.98973 11.7379 0 0 0 
45 3 1 4.7225 1.43071 10.724 0 0 0 
50 2 1 4.43867 5.24611 5.72772 0 0 0 
51 3 1 2.81742 7.54942 8.10447 0 0 0 
44 2 1 7.93522 1.40492 9.51313 0 0 0 
39 3 1 7.93064 -5.50025 9.95179 0 0 0 
43 1 1 11.3187 -0.381279 7.91813 0 0 0 
33 3 1 17.1395 -8.87241 21.5832 0 0 0 
26 2 1 23.0364 -14.1249 18.6428 0 0 0 
21 3 1 28.8927 -21.7249 24.2785 0 0 0 
20 2 1 29.2677 -18.1436 22.9361 0 0 0 
19 1 1 32.7373 -17.0281 20.947 0 0 0 