ITEM: TIMESTEP
0
ITEM: NUMBER OF ATOMS
114
ITEM: BOX BOUNDS pp pp pp
-151.289 151.289
-151.289 151.289
-151.289 151.289
ITEM: ATOMS id type mol x y z ix iy iz 
1 1 1 -10.8859 -13.1278 -65.6076 0 0 0 
2 2 1 -14.2754 -13.1863 -63.7363 0 0 0 
3 3 1 -17.7215 -13.8922 -62.4941 0 0 0 
4 1 1 -10.3004 -12.3926 -62.0892 0 0 0 
5 2 1 -6.77294 -13.3318 -62.9869 0 0 0 
6 3 1 -3.18572 -14.3027 -62.1617 0 0 0 
8 2 1 -13.1044 -11.7159 -56.6995 0 0 0 
9 3 1 -16.5505 -12.4218 -55.4573 0 0 0 
7 1 1 -9.71487 -11.6575 -58.5708 0 0 0 
10 1 1 -9.12934 -10.9223 -55.0524 0 0 0 
11 2 1 -5.60187 -11.8615 -55.9501 0 0 0 
12 3 1 -2.01466 -12.8323 -55.1249 0 0 0 
13 1 1 -8.54381 -10.1871 -51.534 0 0 0 
14 2 1 -11.9333 -10.2456 -49.6627 0 0 0 
15 3 1 -15.3794 -10.9515 -48.4205 0 0 0 
17 2 1 -4.43081 -10.3911 -48.9133 0 0 0 
18 3 1 -0.843596 -11.362 -48.0881 0 0 0 
20 2 1 -10.7623 -8.77528 -42.6259 0 0 0 
21 3 1 -14.2083 -9.4812 -41.3836 0 0 0 
16 1 1 -7.95828 -9.45196 -48.0156 0 0 0 
19 1 1 -7.37275 -8.7168 -44.4972 0 0 0 
22 1 1 -6.78722 -7.98163 -40.9788 0 0 0 
23 2 1 -3.25975 -8.92082 -41.8765 0 0 0 
24 3 1 0.327464 -9.89168 -41.0513 0 0 0 
27 3 1 -13.0373 -8.01088 -34.3468 0 0 0 
25 1 1 -6.20169 -7.24647 -37.4604 0 0 0 
26 2 1 -9.59121 -7.30495 -35.5891 0 0 0 
28 1 1 -5.61616 -6.51131 -33.942 0 0 0 
29 2 1 -2.08869 -7.45049 -34.8397 0 0 0 
31 1 1 -5.03063 -5.77614 -30.4236 0 0 0 
30 3 1 1.49853 -8.42135 -34.0145 0 0 0 
33 3 1 -11.8662 -6.54055 -27.31 0 0 0 
39 3 1 -10.6951 -5.07022 -20.2732 0 0 0 
32 2 1 -8.42014 -5.83463 -28.5523 0 0 0 
34 1 1 -4.4451 -5.04098 -26.9052 0 0 0 
35 2 1 -0.91763 -5.98017 -27.8029 0 0 0 
37 1 1 -3.85956 -4.30582 -23.3868 0 0 0 
38 2 1 -7.24908 -4.3643 -21.5155 0 0 0 
36 3 1 2.66959 -6.95103 -26.9778 0 0 0 
41 2 1 0.253431 -4.50984 -20.7661 0 0 0 
40 1 1 -3.27403 -3.57065 -19.8684 0 0 0 
43 1 1 -2.6885 -2.83549 -16.35 0 0 0 
44 2 1 -6.07802 -2.89397 -14.4787 0 0 0 
45 3 1 -9.52409 -3.5999 -13.2364 0 0 0 
46 1 1 -2.10297 -2.10033 -12.8316 0 0 0 
42 3 1 3.84065 -5.4807 -19.9409 0 0 0 
47 2 1 1.42449 -3.03951 -13.7293 0 0 0 
48 3 1 5.01171 -4.01037 -12.9041 0 0 0 
49 1 1 -1.51744 -1.36516 -9.31319 0 0 0 
50 2 1 -4.90696 -1.42365 -7.44193 0 0 0 
51 3 1 -8.35303 -2.12957 -6.19964 0 0 0 
52 1 1 -0.931911 -0.629998 -5.79479 0 0 0 
53 2 1 2.59555 -1.56918 -6.69249 0 0 0 
54 3 1 6.18277 -2.54004 -5.86735 0 0 0 
55 1 1 -0.34638 0.105164 -2.27638 0 0 0 
56 2 1 -3.7359 0.046681 -0.405124 0 0 0 
57 3 1 -7.18197 -0.659241 0.837158 0 0 0 
59 2 1 3.76661 -0.098857 0.344313 0 0 0 
60 3 1 7.35383 -1.06972 1.16945 0 0 0 
62 2 1 -2.56484 1.51701 6.63168 0 0 0 
63 3 1 -6.01091 0.811085 7.87396 0 0 0 
58 1 1 0.23915 0.840328 1.24202 0 0 0 
61 1 1 0.82468 1.57549 4.76042 0 0 0 
64 1 1 1.41021 2.31066 8.27882 0 0 0 
65 2 1 4.93768 1.37147 7.38111 0 0 0 
66 3 1 8.52489 0.400609 8.20626 0 0 0 
68 2 1 -1.39377 2.98733 13.6685 0 0 0 
69 3 1 -4.83985 2.28141 14.9108 0 0 0 
67 1 1 1.99574 3.04582 11.7972 0 0 0 
70 1 1 2.58127 3.78098 15.3156 0 0 0 
71 2 1 6.10874 2.8418 14.4179 0 0 0 
72 3 1 9.69595 1.87094 15.2431 0 0 0 
73 1 1 3.1668 4.51615 18.834 0 0 0 
74 2 1 -0.222713 4.45766 20.7053 0 0 0 
75 3 1 -3.66878 3.75174 21.9476 0 0 0 
81 3 1 -2.49772 5.22207 28.9844 0 0 0 
76 1 1 3.75233 5.25131 22.3524 0 0 0 
77 2 1 7.2798 4.31212 21.4547 0 0 0 
79 1 1 4.33786 5.98647 25.8708 0 0 0 
80 2 1 0.948347 5.92799 27.7421 0 0 0 
82 1 1 4.9234 6.72164 29.3892 0 0 0 
83 2 1 8.45086 5.78245 28.4915 0 0 0 
78 3 1 10.867 3.34126 22.2798 0 0 0 
84 3 1 12.0381 4.81159 29.3167 0 0 0 
87 3 1 -1.32666 6.69239 36.0212 0 0 0 
85 1 1 5.50893 7.4568 32.9076 0 0 0 
86 2 1 2.11941 7.39832 34.7789 0 0 0 
88 1 1 6.09446 8.19196 36.426 0 0 0 
89 2 1 9.62192 7.25278 35.5283 0 0 0 
91 1 1 6.67999 8.92713 39.9444 0 0 0 
90 3 1 13.2091 6.28192 36.3535 0 0 0 
93 3 1 -0.155599 8.16272 43.058 0 0 0 
92 2 1 3.29047 8.86864 41.8157 0 0 0 
94 1 1 7.26552 9.66229 43.4628 0 0 0 
99 3 1 1.01546 9.63305 50.0948 0 0 0 
95 2 1 10.793 8.72311 42.5651 0 0 0 
96 3 1 14.3802 7.75224 43.3903 0 0 0 
102 3 1 15.5513 9.22257 50.4271 0 0 0 
97 1 1 7.85105 10.3974 46.9812 0 0 0 
98 2 1 4.46153 10.339 48.8525 0 0 0 
101 2 1 11.964 10.1934 49.6019 0 0 0 
100 1 1 8.43658 11.1326 50.4996 0 0 0 
103 1 1 9.02211 11.8678 54.018 0 0 0 
104 2 1 5.63259 11.8093 55.8893 0 0 0 
105 3 1 2.18652 11.1034 57.1316 0 0 0 
106 1 1 9.60764 12.6029 57.5364 0 0 0 
107 2 1 13.1351 11.6638 56.6387 0 0 0 
108 3 1 16.7223 10.6929 57.4639 0 0 0 
110 2 1 6.80365 13.2796 62.9261 0 0 0 
111 3 1 3.35758 12.5737 64.1684 0 0 0 
109 1 1 10.1932 13.3381 61.0548 0 0 0 
112 1 1 10.7787 14.0733 64.5732 0 0 0 
113 2 1 14.3062 13.1341 63.6755 0 0 0 
114 3 1 17.8934 12.1632 64.5007 0 0 0 
ITEM: TIMESTEP
100000
ITEM: NUMBER OF ATOMS
114
ITEM: BOX BOUNDS pp pp pp
-151.289 151.289
-151.289 151.289
-151.289 151.289
ITEM: ATOMS id type mol x y z ix iy iz 
3 3 1 14.063 -17.7552 -52.0521 0 0 0 
2 2 1 16.9806 -16.4017 -54.0531 0 0 0 
1 1 1 19.9636 -16.6653 -56.8289 0 0 0 
6 3 1 28.6607 -13.885 -54.78 0 0 0 
9 3 1 24.3657 -4.8948 -55.1444 0 0 0 
8 2 1 24.9977 -7.84644 -53.1564 0 0 0 
10 1 1 21.3802 -7.94836 -49.8853 0 0 0 
7 1 1 21.985 -10.4301 -52.658 0 0 0 
4 1 1 21.1195 -13.4527 -54.9692 0 0 0 
5 2 1 25.0502 -12.7777 -55.8349 0 0 0 
16 1 1 18.741 -5.77702 -43.1755 0 0 0 
19 1 1 17.2866 -6.40308 -39.5346 0 0 0 
15 3 1 25.0672 -1.2798 -43.8189 0 0 0 
13 1 1 20.3681 -6.36343 -46.6168 0 0 0 
17 2 1 19.6606 -2.64778 -40.824 0 0 0 
18 3 1 21.9681 0.0300859 -39.3473 0 0 0 
14 2 1 22.5456 -3.13355 -45.3037 0 0 0 
12 3 1 27.1413 -3.81045 -50.2305 0 0 0 
11 2 1 23.5134 -4.42885 -49.7513 0 0 0 
20 2 1 18.1787 -9.70283 -37.9148 0 0 0 
21 3 1 20.2417 -12.8315 -38.429 0 0 0 
30 3 1 8.74868 -13.7831 -28.3854 0 0 0 
28 1 1 11.9189 -8.81878 -29.9615 0 0 0 
23 2 1 13.1322 -2.81916 -35.24 0 0 0 
22 1 1 15.0812 -6.21113 -36.4427 0 0 0 
25 1 1 13.0276 -6.88036 -33.1459 0 0 0 
24 3 1 13.2755 0.7971 -34.2288 0 0 0 
27 3 1 7.75183 -1.83974 -33.2543 0 0 0 
26 2 1 9.77359 -4.42646 -32.2491 0 0 0 
35 2 1 5.72528 -12.5243 -23.0824 0 0 0 
36 3 1 2.34044 -14.1055 -23.443 0 0 0 
29 2 1 12.3997 -12.6561 -28.5821 0 0 0 
34 1 1 8.43398 -9.58658 -23.1953 0 0 0 
31 1 1 10.0337 -8.74122 -26.5957 0 0 0 
33 3 1 6.95103 -2.02145 -25.2749 0 0 0 
32 2 1 8.04213 -5.76119 -25.662 0 0 0 
38 2 1 5.18477 -12.2435 -17.433 0 0 0 
37 1 1 7.5516 -9.72347 -19.4268 0 0 0 
41 2 1 7.60331 -10.8797 -12.5952 0 0 0 
39 3 1 2.92212 -15.1758 -17.788 0 0 0 
42 3 1 5.96418 -12.838 -10.3641 0 0 0 
45 3 1 9.8899 1.87167 -14.1396 0 0 0 
40 1 1 7.75595 -8.45609 -15.8272 0 0 0 
43 1 1 8.53011 -5.73344 -13.086 0 0 0 
44 2 1 9.51181 -1.74453 -13.2111 0 0 0 
51 3 1 5.75931 -9.99485 -2.95496 0 0 0 
49 1 1 8.28751 -3.95632 -5.91045 0 0 0 
52 1 1 7.29919 -2.84815 -2.33604 0 0 0 
50 2 1 7.61481 -7.36801 -4.71515 0 0 0 
53 2 1 8.78294 0.136695 -0.045249 0 0 0 
48 3 1 15.0599 -1.22228 -7.32411 0 0 0 
47 2 1 11.961 -1.58771 -8.74719 0 0 0 
46 1 1 9.11898 -4.18897 -9.6833 0 0 0 
57 3 1 -1.70667 -5.31917 2.60579 0 0 0 
62 2 1 -0.206641 -2.3988 9.41282 0 0 0 
63 3 1 -3.08967 -0.52384 9.98725 0 0 0 
56 2 1 1.28327 -3.84912 1.58746 0 0 0 
55 1 1 5.21143 -3.29977 0.858172 0 0 0 
61 1 1 3.1919 -2.75389 7.99837 0 0 0 
58 1 1 4.86264 -3.63274 4.62426 0 0 0 
59 2 1 7.07693 -5.44029 7.56955 0 0 0 
54 3 1 10.4095 3.58047 0.568644 0 0 0 
72 3 1 -1.89836 -2.83513 23.4946 0 0 0 
71 2 1 -0.914859 -0.763048 20.9267 0 0 0 
64 1 1 3.85686 -1.84104 11.6053 0 0 0 
65 2 1 6.09798 -4.68542 13.3669 0 0 0 
66 3 1 6.25236 -8.12234 14.0142 0 0 0 
73 1 1 0.820514 3.61982 20.9344 0 0 0 
70 1 1 1.77484 0.823843 18.3263 0 0 0 
60 3 1 8.36137 -8.29972 9.66261 0 0 0 
68 2 1 5.57889 -2.09374 18.4611 0 0 0 
67 1 1 3.44589 -0.824463 15.3625 0 0 0 
69 3 1 6.71513 -5.15696 20.5076 0 0 0 
84 3 1 -13.2718 2.38829 27.1603 0 0 0 
83 2 1 -10.4951 4.99887 26.2984 0 0 0 
86 2 1 -13.9029 7.6083 27.5248 0 0 0 
85 1 1 -10.4378 8.02229 29.7068 0 0 0 
82 1 1 -7.39056 7.35123 27.3393 0 0 0 
87 3 1 -15.1343 7.02238 24.299 0 0 0 
76 1 1 -1.17829 5.53951 23.7682 0 0 0 
74 2 1 3.16217 6.92486 20.6495 0 0 0 
79 1 1 -3.60456 7.16982 26.2394 0 0 0 
80 2 1 -3.75941 10.3628 28.5859 0 0 0 
77 2 1 -0.648379 9.52613 24.5508 0 0 0 
75 3 1 4.1773 8.73529 17.644 0 0 0 
90 3 1 -11.1806 6.61131 38.0046 0 0 0 
89 2 1 -13.1919 8.99767 35.643 0 0 0 
81 3 1 -5.33595 12.0534 31.7446 0 0 0 
78 3 1 -1.65449 13.2392 23.7987 0 0 0 
99 3 1 -22.823 3.95263 39.1565 0 0 0 
91 1 1 -17.1821 10.1798 33.0219 0 0 0 
93 3 1 -19.8094 11.9806 26.7497 0 0 0 
92 2 1 -19.9322 11.7494 30.6219 0 0 0 
88 1 1 -13.5603 9.07335 31.8097 0 0 0 
94 1 1 -20.3038 11.1268 35.095 0 0 0 
97 1 1 -23.6834 10.6819 36.8905 0 0 0 
95 2 1 -21.7857 14.5945 36.6276 0 0 0 
98 2 1 -24.1774 7.29703 37.9968 0 0 0 
102 3 1 -29.7513 4.36261 40.7838 0 0 0 
101 2 1 -29.2714 7.74468 39.5245 0 0 0 
104 2 1 -32.4708 10.7967 43.407 0 0 0 
106 1 1 -32.4741 14.9668 42.0298 0 0 0 
111 3 1 -40.2737 11.5589 46.7693 0 0 0 
110 2 1 -38.4372 14.2617 44.9755 0 0 0 
109 1 1 -35.3406 16.5916 43.7402 0 0 0 
100 1 1 -26.9911 10.8772 38.7397 0 0 0 
103 1 1 -30.0072 12.3564 40.7056 0 0 0 
96 3 1 -22.0876 15.8839 39.8468 0 0 0 
105 3 1 -34.7021 8.53244 45.1447 0 0 0 
112 1 1 -37.9213 19.0501 45.364 0 0 0 
108 3 1 -32.7522 21.9358 38.8208 0 0 0 
107 2 1 -32.4087 18.9632 41.1892 0 0 0 
114 3 1 -36.5575 26.0975 42.7395 0 0 0 
113 2 1 -37.0797 22.8575 44.5797 0 0 0 
ITEM: TIMESTEP
200000
ITEM: NUMBER OF ATOMS
114
ITEM: BOX BOUNDS pp pp pp
-151.289 151.289
-151.289 151.289
-151.289 151.289
ITEM: ATOMS id type mol x y z ix iy iz 
9 3 1 46.6179 -3.25325 -20.8965 0 0 0 
1 1 1 59.1527 -1.55222 -18.4408 0 0 0 
20 2 1 35.8062 -1.39685 -9.30754 0 0 0 
21 3 1 36.4449 -2.36693 -5.60642 0 0 0 
14 2 1 43.0963 -1.11756 -9.6288 0 0 0 
13 1 1 44.8451 -0.434453 -13.3218 0 0 0 
11 2 1 48.8239 -1.34419 -10.1774 0 0 0 
10 1 1 48.6645 -0.888393 -14.1578 0 0 0 
7 1 1 51.8586 -1.56711 -16.2901 0 0 0 
8 2 1 48.8588 -1.59832 -18.5288 0 0 0 
5 2 1 55.4657 -2.06874 -12.406 0 0 0 
2 2 1 59.8656 -4.45364 -15.5239 0 0 0 
3 3 1 59.3908 -7.94979 -14.2169 0 0 0 
4 1 1 55.6948 -1.66204 -16.5526 0 0 0 
6 3 1 55.5992 -1.49876 -8.74142 0 0 0 
30 3 1 23.8037 5.95262 -8.81673 0 0 0 
28 1 1 26.431 -0.236238 -10.2798 0 0 0 
29 2 1 24.7441 2.7226 -9.09926 0 0 0 
24 3 1 29.9435 4.96114 -17.728 0 0 0 
25 1 1 29.7828 0.381967 -12.181 0 0 0 
26 2 1 26.9793 3.27662 -13.1447 0 0 0 
27 3 1 24.8155 5.26959 -15.3124 0 0 0 
18 3 1 36.3877 -1.12552 -18.9766 0 0 0 
19 1 1 37.1079 -0.308053 -13.0357 0 0 0 
16 1 1 40.9333 -0.368295 -13.8583 0 0 0 
22 1 1 33.4358 0.419158 -13.539 0 0 0 
23 2 1 31.3172 1.98541 -16.5517 0 0 0 
17 2 1 38.8524 0.410968 -16.7462 0 0 0 
72 3 1 -25.9179 -15.5883 7.5564 0 0 0 
71 2 1 -23.3992 -13.2912 6.20299 0 0 0 
75 3 1 -21.3001 -2.68861 2.38851 0 0 0 
74 2 1 -21.3618 -6.13728 2.98746 0 0 0 
62 2 1 -12.8965 -17.4369 -4.15537 0 0 0 
56 2 1 -4.48639 -14.6992 -6.06769 0 0 0 
57 3 1 -4.80343 -14.6785 -9.75488 0 0 0 
77 2 1 -29.7452 -8.26675 4.26795 0 0 0 
78 3 1 -32.5871 -6.96347 2.13592 0 0 0 
63 3 1 -13.0449 -20.577 -5.52328 0 0 0 
47 2 1 3.78195 -7.04431 -6.17715 0 0 0 
48 3 1 2.10114 -3.72699 -6.34567 0 0 0 
39 3 1 12.7861 0.129499 -2.78949 0 0 0 
46 1 1 6.85082 -9.0571 -4.45934 0 0 0 
38 2 1 14.2992 -2.92562 -3.83284 0 0 0 
37 1 1 17.0244 -5.05087 -5.87133 0 0 0 
34 1 1 20.3481 -3.79415 -7.09934 0 0 0 
43 1 1 10.7099 -9.14015 -4.61666 0 0 0 
40 1 1 14.1866 -7.57716 -5.17819 0 0 0 
31 1 1 23.3102 -1.71169 -8.44855 0 0 0 
35 2 1 20.7706 -7.84499 -7.06159 0 0 0 
36 3 1 21.845 -11.0885 -5.66642 0 0 0 
15 3 1 42.7242 -0.59472 -5.84211 0 0 0 
12 3 1 49.9907 -2.88748 -7.33302 0 0 0 
32 2 1 21.7728 -0.214895 -5.72201 0 0 0 
33 3 1 21.1245 -1.17526 -2.28515 0 0 0 
66 3 1 -16.8819 -8.30982 2.86897 0 0 0 
60 3 1 -9.60209 -11.0546 4.07393 0 0 0 
69 3 1 -23.5964 -18.9533 4.50854 0 0 0 
68 2 1 -20.7905 -17.6501 2.67905 0 0 0 
70 1 1 -20.7362 -12.8739 3.23722 0 0 0 
73 1 1 -23.0792 -9.74806 3.7439 0 0 0 
65 2 1 -15.074 -11.7093 2.65154 0 0 0 
67 1 1 -17.9678 -15.1127 2.13209 0 0 0 
64 1 1 -14.2879 -15.0994 0.611275 0 0 0 
59 2 1 -8.25767 -13.3667 1.82815 0 0 0 
58 1 1 -7.20175 -14.5762 -1.89853 0 0 0 
61 1 1 -10.9561 -15.1968 -1.35226 0 0 0 
55 1 1 -3.5068 -13.357 -2.73418 0 0 0 
54 3 1 -1.8314 -11.7464 4.4647 0 0 0 
52 1 1 -0.214104 -11.4906 -2.77374 0 0 0 
49 1 1 3.51361 -10.4566 -3.17627 0 0 0 
53 2 1 -0.876322 -12.7429 0.956158 0 0 0 
51 3 1 5.19369 -14.5164 2.05171 0 0 0 
50 2 1 3.31 -12.3666 0.0343708 0 0 0 
45 3 1 10.6932 -16.1391 -3.11636 0 0 0 
44 2 1 10.1545 -12.3522 -3.2919 0 0 0 
42 3 1 17.0935 -14.2798 -3.56698 0 0 0 
81 3 1 -32.0235 -6.20763 12.7422 0 0 0 
80 2 1 -30.5585 -5.05853 9.47045 0 0 0 
76 1 1 -25.8708 -7.51104 5.07103 0 0 0 
82 1 1 -28.2346 -0.738591 7.46775 0 0 0 
79 1 1 -27.6137 -4.62039 6.97512 0 0 0 
41 2 1 15.0994 -11.5952 -5.29215 0 0 0 
83 2 1 -30.9359 0.444376 10.3764 0 0 0 
86 2 1 -26.2052 4.31733 4.93261 0 0 0 
84 3 1 -32.1321 1.0767 13.5886 0 0 0 
85 1 1 -28.3523 3.08003 7.58923 0 0 0 
88 1 1 -28.0506 6.94366 7.3991 0 0 0 
90 3 1 -26.9657 9.42197 0.255565 0 0 0 
89 2 1 -28.0611 8.5927 3.64645 0 0 0 
91 1 1 -27.8659 10.6915 7.65541 0 0 0 
92 2 1 -27.0403 13.4362 4.8287 0 0 0 
93 3 1 -27.195 16.0541 2.14296 0 0 0 
96 3 1 -31.2439 19.91 5.8218 0 0 0 
95 2 1 -28.7994 17.4033 6.90725 0 0 0 
87 3 1 -23.0499 4.13263 3.26684 0 0 0 
101 2 1 -34.9252 16.6889 16.146 0 0 0 
100 1 1 -32.1072 18.3554 14.5516 0 0 0 
102 3 1 -36.275 14.2456 18.7334 0 0 0 
94 1 1 -28.5875 14.2371 9.32069 0 0 0 
97 1 1 -29.6966 17.1873 11.6229 0 0 0 
99 3 1 -25.4924 23.0706 12.7311 0 0 0 
98 2 1 -28.0757 20.8332 11.678 0 0 0 
108 3 1 -38.9959 19.6856 25.457 0 0 0 
107 2 1 -36.5586 21.0658 23.4489 0 0 0 
106 1 1 -35.0674 22.8667 20.1167 0 0 0 
103 1 1 -33.5376 20.9585 17.2084 0 0 0 
104 2 1 -32.3753 24.6059 16.2647 0 0 0 
114 3 1 -43.7256 22.6063 26.7337 0 0 0 
109 1 1 -36.2978 25.8295 22.1521 0 0 0 
113 2 1 -40.2814 23.952 27.1695 0 0 0 
105 3 1 -29.2246 26.5301 15.0972 0 0 0 
110 2 1 -36.1601 29.8191 22.3713 0 0 0 
111 3 1 -36.9027 33.5718 21.9002 0 0 0 
112 1 1 -38.1761 26.7755 25.4175 0 0 0 
ITEM: TIMESTEP
300000
ITEM: NUMBER OF ATOMS
114
ITEM: BOX BOUNDS pp pp pp
-151.289 151.289
-151.289 151.289
-151.289 151.289
ITEM: ATOMS id type mol x y z ix iy iz 
48 3 1 30.6321 -3.96669 -20.4274 0 0 0 
56 2 1 17.4255 9.5177 -20.7563 0 0 0 
54 3 1 24.3666 7.80382 -27.0771 0 0 0 
53 2 1 23.1097 7.14297 -23.9684 0 0 0 
51 3 1 26.9196 2.5442 -27.3824 0 0 0 
50 2 1 26.527 2.05344 -23.7686 0 0 0 
52 1 1 22.7285 4.27679 -21.1655 0 0 0 
49 1 1 24.555 0.907488 -20.5132 0 0 0 
57 3 1 15.6685 11.7088 -22.9651 0 0 0 
68 2 1 8.22412 -0.695707 -10.406 0 0 0 
36 3 1 15.7242 -1.22718 -17.157 0 0 0 
35 2 1 13.2275 -0.105175 -14.5076 0 0 0 
40 1 1 19.8308 -3.00572 -12.0488 0 0 0 
37 1 1 16.4973 -1.1546 -10.8587 0 0 0 
44 2 1 24.7539 -6.94722 -15.6725 0 0 0 
43 1 1 22.3213 -3.74268 -15.0635 0 0 0 
45 3 1 27.1568 -9.51925 -14.7017 0 0 0 
47 2 1 27.4662 -2.6679 -19.98 0 0 0 
46 1 1 24.3357 -2.13589 -18.0753 0 0 0 
42 3 1 21.4193 -9.91886 -11.6488 0 0 0 
41 2 1 22.0262 -6.24688 -10.633 0 0 0 
66 3 1 4.2569 9.75445 -13.4641 0 0 0 
62 2 1 9.99023 8.50936 -15.9934 0 0 0 
65 2 1 6.27522 6.57766 -13.9046 0 0 0 
67 1 1 7.54252 2.69946 -11.766 0 0 0 
64 1 1 9.84894 4.57792 -14.1086 0 0 0 
30 3 1 8.51754 9.75052 -10.5877 0 0 0 
55 1 1 19.5072 6.21402 -19.8847 0 0 0 
33 3 1 14.8206 8.85384 -11.9561 0 0 0 
60 3 1 19.1753 4.29389 -10.4932 0 0 0 
58 1 1 16.584 6.03173 -17.4431 0 0 0 
61 1 1 12.9633 5.72318 -15.9584 0 0 0 
59 2 1 17.1867 4.54574 -13.7556 0 0 0 
34 1 1 13.2395 1.04309 -10.6845 0 0 0 
63 3 1 7.38049 10.3452 -18.1041 0 0 0 
79 1 1 -1.52596 -1.57579 -0.064265 0 0 0 
81 3 1 -8.85415 -2.63423 -0.661224 0 0 0 
80 2 1 -5.32082 -1.8466 -0.722017 0 0 0 
27 3 1 7.36742 -3.34486 -2.46273 0 0 0 
76 1 1 0.645303 -0.345668 -3.00114 0 0 0 
69 3 1 10.7292 -2.75019 -8.29251 0 0 0 
38 2 1 17.7809 -1.78743 -7.57137 0 0 0 
72 3 1 -1.26856 6.9933 -8.50973 0 0 0 
75 3 1 -4.83873 1.45106 -8.49294 0 0 0 
74 2 1 -1.86395 0.290536 -6.56265 0 0 0 
20 2 1 -2.87078 3.65152 -2.08394 0 0 0 
21 3 1 -5.60871 4.93024 -4.35231 0 0 0 
71 2 1 2.01993 4.83791 -8.28419 0 0 0 
26 2 1 7.1906 0.0188402 -3.83926 0 0 0 
24 3 1 3.19715 9.83015 -5.07712 0 0 0 
70 1 1 4.78856 2.00908 -9.06914 0 0 0 
73 1 1 2.29195 0.631573 -6.35356 0 0 0 
22 1 1 1.89405 3.81567 -1.59527 0 0 0 
23 2 1 1.52542 7.12098 -3.68538 0 0 0 
29 2 1 7.80098 6.49708 -9.10909 0 0 0 
28 1 1 7.99165 3.72031 -6.29576 0 0 0 
25 1 1 4.9795 3.49758 -3.87253 0 0 0 
32 2 1 13.6771 6.24625 -9.54314 0 0 0 
39 3 1 19.5578 0.226881 -4.80246 0 0 0 
31 1 1 11.0551 3.32712 -8.55384 0 0 0 
96 3 1 -17.6447 -7.72742 8.68162 0 0 0 
12 3 1 -10.2491 -3.85446 7.4484 0 0 0 
83 2 1 -6.02999 -3.98558 3.50515 0 0 0 
82 1 1 -3.26474 -1.95556 3.32023 0 0 0 
85 1 1 -4.3079 -1.50839 7.14413 0 0 0 
84 3 1 -7.9575 -7.2973 3.55564 0 0 0 
11 2 1 -9.53209 -0.352037 7.73959 0 0 0 
77 2 1 2.96466 -0.430443 0.339088 0 0 0 
78 3 1 5.93807 -1.84411 2.31688 0 0 0 
18 3 1 1.32808 -2.5762 6.73944 0 0 0 
15 3 1 -10.4899 1.27884 0.563499 0 0 0 
19 1 1 -0.814713 3.32034 1.17173 0 0 0 
14 2 1 -7.48025 1.32852 3.08279 0 0 0 
13 1 1 -6.14671 3.05316 6.68961 0 0 0 
16 1 1 -3.17928 2.97665 4.20424 0 0 0 
10 1 1 -8.29371 2.70718 9.85533 0 0 0 
17 2 1 0.100913 0.730356 5.13502 0 0 0 
105 3 1 -26.1083 -14.7624 14.934 0 0 0 
104 2 1 -24.9948 -11.3371 16.2175 0 0 0 
102 3 1 -22.8458 -11.1676 11.0555 0 0 0 
108 3 1 -32.2113 -9.63822 15.8134 0 0 0 
107 2 1 -29.1706 -9.2904 17.4648 0 0 0 
101 2 1 -20.4677 -8.9976 13.0826 0 0 0 
103 1 1 -23.1992 -7.67794 16.9298 0 0 0 
106 1 1 -26.4846 -7.45941 19.0251 0 0 0 
95 2 1 -15.7124 -5.32823 11.0869 0 0 0 
100 1 1 -19.5878 -6.75103 15.6676 0 0 0 
98 2 1 -17.5567 -4.87912 19.2924 0 0 0 
94 1 1 -12.8245 -3.91058 13.5174 0 0 0 
97 1 1 -16.0032 -5.29893 15.513 0 0 0 
3 3 1 -12.7383 -1.98044 18.8116 0 0 0 
88 1 1 -6.27787 -1.40615 10.359 0 0 0 
86 2 1 -2.63565 -0.485982 10.1337 0 0 0 
91 1 1 -9.42497 -2.49549 12.3864 0 0 0 
92 2 1 -9.27971 -1.65342 15.8154 0 0 0 
93 3 1 -7.38833 -2.53618 18.9832 0 0 0 
9 3 1 -15.3085 0.767283 11.6149 0 0 0 
2 2 1 -11.9939 1.30606 19.0771 0 0 0 
8 2 1 -12.0294 1.3541 12.5899 0 0 0 
90 3 1 -4.67739 2.54512 16.6233 0 0 0 
89 2 1 -6.14682 0.330475 14.0097 0 0 0 
4 1 1 -9.7489 4.82002 16.9665 0 0 0 
87 3 1 -0.736584 1.49313 12.4869 0 0 0 
7 1 1 -9.32683 3.66875 13.3401 0 0 0 
6 3 1 -4.45336 7.55883 12.5925 0 0 0 
5 2 1 -6.77228 7.28615 15.5827 0 0 0 
111 3 1 -33.8508 -12.684 23.9613 0 0 0 
110 2 1 -31.272 -10.8786 21.6761 0 0 0 
112 1 1 -32.4186 -6.41072 23.7551 0 0 0 
113 2 1 -32.9895 -4.00367 27.1079 0 0 0 
109 1 1 -29.4719 -7.32026 21.4761 0 0 0 
99 3 1 -17.9715 -5.13399 22.7825 0 0 0 
1 1 1 -10.6254 4.74127 20.7285 0 0 0 
114 3 1 -34.314 -3.13933 30.736 0 0 0 
ITEM: TIMESTEP
400000
ITEM: NUMBER OF ATOMS
114
ITEM: BOX BOUNDS pp pp pp
-151.289 151.289
-151.289 151.289
-151.289 151.289
ITEM: ATOMS id type mol x y z ix iy iz 
9 3 1 -19.2391 -8.78651 -10.0766 0 0 0 
6 3 1 -25.8593 -8.08773 -16.418 0 0 0 
8 2 1 -20.3595 -5.90883 -11.9739 0 0 0 
112 1 1 -29.653 -1.8445 -11.4426 0 0 0 
113 2 1 -28.8957 -3.11799 -15.2116 0 0 0 
114 3 1 -27.7822 -3.55486 -18.7865 0 0 0 
1 1 1 -27.1792 1.14598 -14.5652 0 0 0 
4 1 1 -24.7189 -1.46296 -13.5508 0 0 0 
5 2 1 -24.9461 -5.41072 -14.3151 0 0 0 
7 1 1 -21.2261 -2.49803 -12.1973 0 0 0 
102 3 1 -21.9598 -7.21785 -3.15411 0 0 0 
15 3 1 -16.3643 -8.77087 -3.83035 0 0 0 
96 3 1 -15.2935 -10.0368 0.960687 0 0 0 
95 2 1 -13.0608 -7.33274 -0.801134 0 0 0 
18 3 1 -11.1909 -11.7297 -5.2334 0 0 0 
21 3 1 -5.49389 -11.3048 -2.46792 0 0 0 
90 3 1 -8.14988 -10.1025 5.22638 0 0 0 
24 3 1 -0.420508 -9.64722 -0.201524 0 0 0 
27 3 1 3.77835 -8.71395 -4.97124 0 0 0 
108 3 1 -25.1502 -7.70388 -8.08374 0 0 0 
107 2 1 -24.5184 -4.49864 -9.10952 0 0 0 
106 1 1 -23.1653 -1.35958 -7.95567 0 0 0 
110 2 1 -30.1608 0.347599 -6.90259 0 0 0 
109 1 1 -26.9706 -1.03296 -8.84946 0 0 0 
14 2 1 -15.2926 -7.14341 -6.73449 0 0 0 
103 1 1 -19.2871 -1.12549 -7.21548 0 0 0 
101 2 1 -19.8431 -4.50231 -4.00057 0 0 0 
100 1 1 -16.3121 -2.68864 -5.24158 0 0 0 
97 1 1 -12.8947 -3.69162 -3.56006 0 0 0 
13 1 1 -14.503 -4.08405 -9.3068 0 0 0 
16 1 1 -11.0333 -5.14337 -7.74613 0 0 0 
17 2 1 -10.3672 -8.80447 -6.95465 0 0 0 
98 2 1 -12.6882 0.124092 -4.86604 0 0 0 
10 1 1 -17.7177 -2.47983 -10.8408 0 0 0 
89 2 1 -5.41792 -9.3955 2.60208 0 0 0 
23 2 1 -1.49646 -7.29038 -2.94286 0 0 0 
20 2 1 -7.16344 -8.57218 -3.95248 0 0 0 
94 1 1 -9.77598 -5.01301 -1.68333 0 0 0 
22 1 1 -3.7762 -4.59395 -4.93673 0 0 0 
19 1 1 -7.44911 -5.21858 -6.32786 0 0 0 
93 3 1 -5.94924 1.41277 -3.33539 0 0 0 
92 2 1 -6.54938 -2.05848 -2.72932 0 0 0 
91 1 1 -6.07906 -5.32756 -0.516272 0 0 0 
86 2 1 -0.901386 -1.96575 1.08262 0 0 0 
88 1 1 -2.80194 -6.41008 1.58422 0 0 0 
26 2 1 1.97922 -6.33783 -3.11527 0 0 0 
25 1 1 -0.374545 -3.07908 -3.67522 0 0 0 
29 2 1 5.41007 -4.71551 -1.44595 0 0 0 
28 1 1 3.04472 -2.07707 -2.4782 0 0 0 
31 1 1 6.09669 -0.310079 -0.898762 0 0 0 
72 3 1 12.0012 2.66814 -4.40834 0 0 0 
111 3 1 -31.8929 3.25489 -4.99472 0 0 0 
3 3 1 -24.5218 4.9011 -8.75018 0 0 0 
104 2 1 -19.559 1.97054 -9.80867 0 0 0 
2 2 1 -25.6005 2.63433 -11.3032 0 0 0 
105 3 1 -18.7378 4.35209 -12.4365 0 0 0 
12 3 1 -13.0446 3.53428 -10.2983 0 0 0 
11 2 1 -14.9382 0.411385 -10.9852 0 0 0 
99 3 1 -9.88258 1.03633 -6.87189 0 0 0 
87 3 1 -3.66593 0.417825 2.01603 0 0 0 
35 2 1 9.36241 6.33035 0.258366 0 0 0 
65 2 1 21.035 9.36503 -0.661359 0 0 0 
66 3 1 20.4315 12.0337 -2.89371 0 0 0 
71 2 1 13.6455 3.57849 -1.46892 0 0 0 
63 3 1 25.7488 16.3553 0.577496 0 0 0 
84 3 1 2.6388 -12.4723 1.94487 0 0 0 
81 3 1 8.02179 -12.0501 3.33936 0 0 0 
30 3 1 8.15174 -7.18638 -1.99195 0 0 0 
83 2 1 4.01769 -8.89601 1.78863 0 0 0 
80 2 1 8.68147 -8.35298 4.08983 0 0 0 
32 2 1 9.68334 -2.34388 -0.509368 0 0 0 
85 1 1 0.980006 -5.474 2.10479 0 0 0 
82 1 1 4.57548 -5.59507 2.87529 0 0 0 
79 1 1 8.2347 -4.24504 3.73431 0 0 0 
42 3 1 12.3682 -3.71377 11.3592 0 0 0 
33 3 1 13.2205 -3.27655 -1.84245 0 0 0 
76 1 1 10.9622 -1.37208 3.50138 0 0 0 
74 2 1 15.5113 -2.90153 3.568 0 0 0 
36 3 1 10.9156 9.69979 -0.84095 0 0 0 
77 2 1 7.74588 0.472299 5.45925 0 0 0 
34 1 1 8.35442 2.36676 0.82846 0 0 0 
78 3 1 6.19744 3.91178 6.25678 0 0 0 
37 1 1 10.4606 3.3486 3.84997 0 0 0 
41 2 1 12.8139 -1.60095 8.20073 0 0 0 
40 1 1 11.9755 2.35974 7.16718 0 0 0 
38 2 1 12.4512 6.62812 5.0557 0 0 0 
73 1 1 14.0534 0.805487 2.74902 0 0 0 
70 1 1 16.0801 3.98656 1.80386 0 0 0 
69 3 1 17.6419 3.12218 9.75377 0 0 0 
68 2 1 18.4884 3.90144 6.13095 0 0 0 
67 1 1 19.0203 6.28391 2.85758 0 0 0 
39 3 1 14.9743 8.19919 7.16811 0 0 0 
64 1 1 20.9635 9.57239 3.19223 0 0 0 
62 2 1 23.9589 14.0669 2.62122 0 0 0 
61 1 1 22.3222 12.2293 5.80624 0 0 0 
58 1 1 22.9352 12.9218 9.58157 0 0 0 
59 2 1 25.1172 15.7912 7.80064 0 0 0 
60 3 1 27.8321 17.9831 6.14186 0 0 0 
75 3 1 17.6604 -5.54235 3.4583 0 0 0 
45 3 1 9.84513 -0.259829 17.154 0 0 0 
43 1 1 12.9587 3.12435 10.8549 0 0 0 
44 2 1 11.5961 1.03859 14.203 0 0 0 
46 1 1 14.9066 4.58942 13.7187 0 0 0 
49 1 1 17.5308 6.74098 15.515 0 0 0 
47 2 1 13.8986 4.0197 17.6105 0 0 0 
50 2 1 18.5103 7.32889 19.4793 0 0 0 
52 1 1 20.8703 8.80408 15.1577 0 0 0 
55 1 1 22.4333 11.7597 13.2235 0 0 0 
56 2 1 24.2005 15.0046 14.8404 0 0 0 
57 3 1 26.3836 17.5751 16.5693 0 0 0 
53 2 1 24.225 8.93616 17.1124 0 0 0 
54 3 1 26.7555 11.2687 19.1071 0 0 0 
48 3 1 11.2689 4.83173 20.3804 0 0 0 
51 3 1 19.7975 6.39484 22.6635 0 0 0 
ITEM: TIMESTEP
500000
ITEM: NUMBER OF ATOMS
114
ITEM: BOX BOUNDS pp pp pp
-151.289 151.289
-151.289 151.289
-151.289 151.289
ITEM: ATOMS id type mol x y z ix iy iz 
111 3 1 -7.25011 -11.9316 -30.9696 0 0 0 
114 3 1 -0.736371 -10.2036 -38.0573 0 0 0 
1 1 1 -0.00525959 -11.1131 -30.524 0 0 0 
113 2 1 -2.40873 -7.73418 -36.1051 0 0 0 
112 1 1 -2.44832 -5.26033 -32.8453 0 0 0 
110 2 1 -4.49257 -9.32449 -30.4426 0 0 0 
3 3 1 1.92175 -3.77945 -31.0245 0 0 0 
8 2 1 -2.70356 -11.9476 -21.2174 0 0 0 
108 3 1 -5.78604 -11.9743 -25.8914 0 0 0 
102 3 1 -7.78582 -11.6735 -20.2601 0 0 0 
7 1 1 -0.845892 -9.04704 -23.2248 0 0 0 
4 1 1 -0.0789686 -9.76048 -26.9566 0 0 0 
107 2 1 -4.69068 -8.71758 -25.858 0 0 0 
106 1 1 -5.10622 -4.86129 -25.5178 0 0 0 
109 1 1 -4.01913 -5.50296 -29.1713 0 0 0 
103 1 1 -5.31002 -4.16089 -21.588 0 0 0 
104 2 1 -3.7068 -0.816423 -22.7998 0 0 0 
5 2 1 -0.192711 -5.88252 -25.8331 0 0 0 
2 2 1 0.438486 -7.08707 -30.1004 0 0 0 
6 3 1 0.804277 -2.77263 -24.1056 0 0 0 
105 3 1 -2.48126 1.35867 -25.1744 0 0 0 
9 3 1 -3.48858 -14.2434 -18.6483 0 0 0 
15 3 1 -3.62384 -14.6287 -13.6172 0 0 0 
99 3 1 -10.0552 -10.1938 -14.0589 0 0 0 
14 2 1 -5.01082 -11.3546 -14.7615 0 0 0 
17 2 1 -6.37854 -10.4084 -10.4952 0 0 0 
96 3 1 -10.919 -6.9533 -10.6939 0 0 0 
95 2 1 -7.65293 -5.63664 -11.1057 0 0 0 
98 2 1 -8.47833 -6.71314 -14.3929 0 0 0 
101 2 1 -6.18334 -8.70516 -18.9805 0 0 0 
97 1 1 -5.91068 -4.01182 -13.9774 0 0 0 
10 1 1 -1.62835 -7.49997 -19.6845 0 0 0 
16 1 1 -3.5316 -7.98603 -12.0778 0 0 0 
100 1 1 -5.80369 -4.69323 -17.8186 0 0 0 
11 2 1 -0.640923 -4.5187 -18.1276 0 0 0 
13 1 1 -2.90577 -8.05317 -16.0216 0 0 0 
94 1 1 -5.31905 -2.89836 -10.2501 0 0 0 
12 3 1 2.01233 -2.75132 -16.3107 0 0 0 
18 3 1 -9.58852 -11.3025 -9.3656 0 0 0 
21 3 1 -10.1207 -4.66856 -5.72135 0 0 0 
90 3 1 -11.5243 -0.545375 -2.73448 0 0 0 
20 2 1 -6.80499 -5.98941 -5.99635 0 0 0 
24 3 1 -8.4815 -4.31576 -0.950776 0 0 0 
19 1 1 -3.65667 -6.93916 -8.46705 0 0 0 
91 1 1 -4.0903 -1.52716 -6.6626 0 0 0 
92 2 1 -0.387092 -2.56413 -7.86082 0 0 0 
22 1 1 -2.4573 -5.64913 -4.91501 0 0 0 
25 1 1 -1.06409 -4.4231 -1.65462 0 0 0 
23 2 1 -5.53496 -5.4821 -2.43359 0 0 0 
89 2 1 -8.13971 -0.626962 -3.72962 0 0 0 
88 1 1 -4.08249 -0.364502 -2.97042 0 0 0 
93 3 1 1.97621 -5.03535 -8.20032 0 0 0 
86 2 1 0.233681 0.537671 -1.84647 0 0 0 
87 3 1 2.53015 2.84928 -3.85642 0 0 0 
84 3 1 -10.469 -0.26505 2.7603 0 0 0 
27 3 1 -4.93969 -5.52801 4.67598 0 0 0 
26 2 1 -3.84691 -3.87398 1.37566 0 0 0 
80 2 1 -1.27093 -2.32774 6.78769 0 0 0 
28 1 1 1.15811 -3.14453 1.12321 0 0 0 
81 3 1 0.195811 -5.25215 5.33712 0 0 0 
29 2 1 4.53903 -4.2606 2.99773 0 0 0 
30 3 1 6.0586 -4.33264 6.46975 0 0 0 
31 1 1 1.95204 -0.332884 3.57152 0 0 0 
35 2 1 2.85007 -1.70641 9.88893 0 0 0 
85 1 1 -2.92375 0.49946 0.660911 0 0 0 
82 1 1 -3.24733 0.979277 4.47705 0 0 0 
79 1 1 -1.64387 1.10582 7.95711 0 0 0 
83 2 1 -6.92055 1.06817 2.66772 0 0 0 
33 3 1 -2.20742 5.66944 3.13478 0 0 0 
78 3 1 0.983882 7.92773 6.84723 0 0 0 
77 2 1 0.86306 4.81525 8.89714 0 0 0 
32 2 1 0.621197 3.30234 3.61591 0 0 0 
34 1 1 3.15555 1.04566 6.86046 0 0 0 
37 1 1 4.77202 2.85903 9.85211 0 0 0 
72 3 1 -2.36476 -5.22874 17.5347 0 0 0 
71 2 1 -1.2037 -1.62042 18.2799 0 0 0 
36 3 1 0.418311 -4.04279 11.8456 0 0 0 
39 3 1 5.43723 -0.958252 16.4033 0 0 0 
76 1 1 -0.338112 1.90115 11.5248 0 0 0 
75 3 1 1.49755 8.41733 12.3119 0 0 0 
74 2 1 2.44996 5.09213 13.7983 0 0 0 
73 1 1 0.429887 1.95233 15.3916 0 0 0 
70 1 1 0.540569 1.82512 19.2575 0 0 0 
40 1 1 6.50869 5.4433 12.2139 0 0 0 
38 2 1 5.26727 0.398542 13.0089 0 0 0 
41 2 1 8.0071 4.55544 15.6797 0 0 0 
68 2 1 2.11551 6.23453 19.0613 0 0 0 
42 3 1 7.02418 4.30817 19.3627 0 0 0 
43 1 1 7.60621 8.69719 13.8194 0 0 0 
69 3 1 3.7012 9.13832 17.1622 0 0 0 
44 2 1 6.0294 11.9999 12.2754 0 0 0 
45 3 1 2.62608 13.4032 12.0802 0 0 0 
46 1 1 9.52424 11.4437 15.7028 0 0 0 
47 2 1 11.2232 14.1811 14.044 0 0 0 
49 1 1 10.2554 13.9083 18.6379 0 0 0 
50 2 1 12.1676 17.4759 19.0912 0 0 0 
48 3 1 11.4381 17.8171 12.8525 0 0 0 
51 3 1 12.7812 20.7627 17.2056 0 0 0 
65 2 1 -0.366446 3.84703 26.787 0 0 0 
66 3 1 -3.5067 2.19061 26.7284 0 0 0 
67 1 1 1.57696 3.91218 22.3226 0 0 0 
64 1 1 2.47865 5.74411 25.6827 0 0 0 
61 1 1 4.28934 8.15754 28.0323 0 0 0 
58 1 1 6.60796 11.2905 28.0121 0 0 0 
52 1 1 9.8357 14.8831 22.3025 0 0 0 
55 1 1 8.6574 13.7527 25.6954 0 0 0 
56 2 1 9.25164 15.3342 29.3198 0 0 0 
53 2 1 10.9041 18.1735 24.4913 0 0 0 
54 3 1 12.6864 21.3411 23.4412 0 0 0 
62 2 1 2.61928 5.82686 30.9822 0 0 0 
63 3 1 2.91847 6.26481 34.6409 0 0 0 
59 2 1 5.72544 11.3522 31.9503 0 0 0 
60 3 1 4.73544 12.333 35.6011 0 0 0 
57 3 1 10.9063 17.7424 31.5407 0 0 0 
ITEM: TIMESTEP
600000
ITEM: NUMBER OF ATOMS
114
ITEM: BOX BOUNDS pp pp pp
-151.289 151.289
-151.289 151.289
-151.289 151.289
ITEM: ATOMS id type mol x y z ix iy iz 
108 3 1 5.42632 -18.0192 -22.8831 0 0 0 
107 2 1 6.16527 -14.8166 -23.7421 0 0 0 
102 3 1 2.4768 -14.8437 -18.2039 0 0 0 
111 3 1 10.5296 -19.6859 -27.0746 0 0 0 
106 1 1 7.35088 -10.9187 -23.8489 0 0 0 
6 3 1 12.4324 -19.1754 -19.4895 0 0 0 
5 2 1 11.6425 -16.2319 -21.8903 0 0 0 
110 2 1 9.69508 -16.0773 -28.0298 0 0 0 
1 1 1 13.9301 -12.6915 -26.9442 0 0 0 
4 1 1 12.0285 -12.6354 -23.535 0 0 0 
112 1 1 10.3722 -12.5702 -30.7892 0 0 0 
109 1 1 8.97517 -12.1489 -27.219 0 0 0 
113 2 1 11.7771 -9.37451 -33.0872 0 0 0 
2 2 1 12.7028 -8.94221 -27.0618 0 0 0 
3 3 1 10.2293 -6.47501 -27.5662 0 0 0 
114 3 1 14.4883 -7.72274 -35.2435 0 0 0 
15 3 1 0.648314 -14.2221 -13.1872 0 0 0 
18 3 1 -2.75682 -10.261 -10.4663 0 0 0 
17 2 1 0.82566 -9.3089 -9.87861 0 0 0 
9 3 1 6.79002 -17.0953 -17.0852 0 0 0 
8 2 1 8.29503 -14.4413 -18.7802 0 0 0 
14 2 1 3.63595 -12.6811 -12.6725 0 0 0 
10 1 1 8.45758 -9.77363 -17.0832 0 0 0 
13 1 1 5.95598 -9.77433 -14.1503 0 0 0 
101 2 1 3.8999 -11.6009 -17.9772 0 0 0 
7 1 1 10.3237 -11.5352 -20.1979 0 0 0 
99 3 1 -1.44473 -11.5528 -16.2845 0 0 0 
98 2 1 0.651431 -9.02755 -15.054 0 0 0 
95 2 1 -1.88011 -5.20662 -13.3056 0 0 0 
96 3 1 -5.19588 -6.56593 -12.9774 0 0 0 
16 1 1 4.4602 -8.37874 -10.9291 0 0 0 
103 1 1 6.06062 -8.89124 -20.8625 0 0 0 
94 1 1 1.32454 -3.33579 -11.8212 0 0 0 
11 2 1 8.29984 -6.18155 -15.3462 0 0 0 
97 1 1 2.6212 -5.51012 -14.7068 0 0 0 
100 1 1 4.18368 -7.49708 -17.7044 0 0 0 
12 3 1 7.19548 -4.63481 -12.0847 0 0 0 
104 2 1 9.45532 -7.02966 -22.0577 0 0 0 
105 3 1 12.7317 -6.06061 -22.451 0 0 0 
90 3 1 -6.91576 1.03702 -7.61441 0 0 0 
21 3 1 -3.72067 -5.65612 -7.8557 0 0 0 
20 2 1 0.11765 -5.25423 -7.15821 0 0 0 
27 3 1 -6.30876 -3.28905 -4.20058 0 0 0 
26 2 1 -3.1079 -2.59131 -3.067 0 0 0 
91 1 1 1.26672 -0.93318 -8.73363 0 0 0 