ITEM: TIMESTEP
0
ITEM: NUMBER OF ATOMS
120
ITEM: BOX BOUNDS pp pp pp
-153.898 153.898
-153.898 153.898
-153.898 153.898
ITEM: ATOMS id type mol x y z ix iy iz 
1 1 1 -11.4715 -13.8629 -69.126 0 0 0 
2 2 1 -14.861 -13.9214 -67.2547 0 0 0 
3 3 1 -18.3071 -14.6273 -66.0125 0 0 0 
4 1 1 -10.8859 -13.1278 -65.6076 0 0 0 
7 1 1 -10.3004 -12.3926 -62.0892 0 0 0 
5 2 1 -7.35847 -14.067 -66.5053 0 0 0 
6 3 1 -3.77125 -15.0378 -65.6801 0 0 0 
8 2 1 -13.6899 -12.4511 -60.2179 0 0 0 
9 3 1 -17.136 -13.157 -58.9757 0 0 0 
14 2 1 -12.5189 -10.9808 -53.1811 0 0 0 
15 3 1 -15.9649 -11.6867 -51.9389 0 0 0 
10 1 1 -9.71487 -11.6575 -58.5708 0 0 0 
11 2 1 -6.18741 -12.5966 -59.4685 0 0 0 
12 3 1 -2.60019 -13.5675 -58.6433 0 0 0 
13 1 1 -9.12934 -10.9223 -55.0524 0 0 0 
17 2 1 -5.01635 -11.1263 -52.4317 0 0 0 
18 3 1 -1.42913 -12.0972 -51.6065 0 0 0 
16 1 1 -8.54381 -10.1871 -51.534 0 0 0 
24 3 1 -0.258066 -10.6268 -44.5697 0 0 0 
20 2 1 -11.3478 -9.51044 -46.1443 0 0 0 
21 3 1 -14.7939 -10.2164 -44.9021 0 0 0 
19 1 1 -7.95828 -9.45196 -48.0156 0 0 0 
22 1 1 -7.37275 -8.7168 -44.4972 0 0 0 
23 2 1 -3.84528 -9.65598 -45.3949 0 0 0 
27 3 1 -13.6228 -8.74604 -37.8652 0 0 0 
33 3 1 -12.4517 -7.27571 -30.8284 0 0 0 
25 1 1 -6.78722 -7.98163 -40.9788 0 0 0 
26 2 1 -10.1767 -8.04012 -39.1075 0 0 0 
28 1 1 -6.20169 -7.24647 -37.4604 0 0 0 
29 2 1 -2.67422 -8.18566 -38.3581 0 0 0 
31 1 1 -5.61616 -6.51131 -33.942 0 0 0 
32 2 1 -9.00567 -6.56979 -32.0707 0 0 0 
35 2 1 -1.50316 -6.71533 -31.3213 0 0 0 
30 3 1 0.912995 -9.15652 -37.5329 0 0 0 
39 3 1 -11.2807 -5.80539 -23.7916 0 0 0 
34 1 1 -5.03063 -5.77614 -30.4236 0 0 0 
37 1 1 -4.4451 -5.04098 -26.9052 0 0 0 
38 2 1 -7.83461 -5.09946 -25.0339 0 0 0 
40 1 1 -3.85956 -4.30582 -23.3868 0 0 0 
41 2 1 -0.332099 -5.245 -24.2845 0 0 0 
36 3 1 2.08406 -7.68619 -30.4962 0 0 0 
42 3 1 3.25512 -6.21586 -23.4593 0 0 0 
43 1 1 -3.27403 -3.57065 -19.8684 0 0 0 
44 2 1 -6.66355 -3.62914 -17.9971 0 0 0 
45 3 1 -10.1096 -4.33506 -16.7548 0 0 0 
46 1 1 -2.6885 -2.83549 -16.35 0 0 0 
49 1 1 -2.10297 -2.10033 -12.8316 0 0 0 
50 2 1 -5.49249 -2.15881 -10.9603 0 0 0 
47 2 1 0.838961 -3.77467 -17.2477 0 0 0 
48 3 1 4.42618 -4.74554 -16.4225 0 0 0 
51 3 1 -8.93856 -2.86473 -9.71804 0 0 0 
52 1 1 -1.51744 -1.36516 -9.31319 0 0 0 
55 1 1 -0.931911 -0.629998 -5.79479 0 0 0 
56 2 1 -4.32143 -0.688482 -3.92353 0 0 0 
57 3 1 -7.7675 -1.3944 -2.68124 0 0 0 
53 2 1 2.01002 -2.30435 -10.2109 0 0 0 
54 3 1 5.59724 -3.27521 -9.38575 0 0 0 
59 2 1 3.18108 -0.83402 -3.17409 0 0 0 
60 3 1 6.7683 -1.80488 -2.34895 0 0 0 
58 1 1 -0.34638 0.105164 -2.27638 0 0 0 
66 3 1 7.93936 -0.334554 4.68786 0 0 0 
62 2 1 -3.15037 0.781844 3.11327 0 0 0 
63 3 1 -6.59644 0.075921 4.35556 0 0 0 
68 2 1 -1.97931 2.25217 10.1501 0 0 0 
61 1 1 0.23915 0.840328 1.24202 0 0 0 
64 1 1 0.82468 1.57549 4.76042 0 0 0 
65 2 1 4.35215 0.636306 3.86271 0 0 0 
67 1 1 1.41021 2.31066 8.27882 0 0 0 
69 3 1 -5.42537 1.54625 11.3924 0 0 0 
74 2 1 -0.808244 3.7225 17.1869 0 0 0 
75 3 1 -4.25431 3.01658 18.4292 0 0 0 
70 1 1 1.99574 3.04582 11.7972 0 0 0 
71 2 1 5.52321 2.10663 10.8995 0 0 0 
72 3 1 9.11042 1.13577 11.7247 0 0 0 
73 1 1 2.58127 3.78098 15.3156 0 0 0 
76 1 1 3.1668 4.51615 18.834 0 0 0 
77 2 1 6.69427 3.57696 17.9363 0 0 0 
78 3 1 10.2815 2.6061 18.7614 0 0 0 
81 3 1 -3.08325 4.4869 25.466 0 0 0 
79 1 1 3.75233 5.25131 22.3524 0 0 0 
80 2 1 0.362816 5.19283 24.2237 0 0 0 
82 1 1 4.33786 5.98647 25.8708 0 0 0 
83 2 1 7.86533 5.04729 24.9731 0 0 0 
85 1 1 4.9234 6.72164 29.3892 0 0 0 
84 3 1 11.4525 4.07643 25.7983 0 0 0 
87 3 1 -1.91219 5.95723 32.5028 0 0 0 
93 3 1 -0.74113 7.42756 39.5396 0 0 0 
86 2 1 1.53388 6.66315 31.2605 0 0 0 
88 1 1 5.50893 7.4568 32.9076 0 0 0 
89 2 1 9.03639 6.51761 32.0099 0 0 0 
91 1 1 6.09446 8.19196 36.426 0 0 0 
92 2 1 2.70494 8.13348 38.2973 0 0 0 
94 1 1 6.67999 8.92713 39.9444 0 0 0 
95 2 1 10.2074 7.98794 39.0467 0 0 0 
90 3 1 12.6236 5.54675 32.8351 0 0 0 
96 3 1 13.7947 7.01708 39.8719 0 0 0 
97 1 1 7.26552 9.66229 43.4628 0 0 0 
98 2 1 3.876 9.60381 45.3341 0 0 0 
99 3 1 0.429931 8.89788 46.5764 0 0 0 
101 2 1 11.3785 9.45827 46.0835 0 0 0 
102 3 1 14.9657 8.48741 46.9087 0 0 0 
100 1 1 7.85105 10.3974 46.9812 0 0 0 
103 1 1 8.43658 11.1326 50.4996 0 0 0 
108 3 1 16.1368 9.95773 53.9455 0 0 0 
104 2 1 5.04706 11.0741 52.3709 0 0 0 
105 3 1 1.60099 10.3682 53.6132 0 0 0 
106 1 1 9.02211 11.8678 54.018 0 0 0 
109 1 1 9.60764 12.6029 57.5364 0 0 0 
110 2 1 6.21812 12.5445 59.4077 0 0 0 
111 3 1 2.77205 11.8385 60.65 0 0 0 
112 1 1 10.1932 13.3381 61.0548 0 0 0 
107 2 1 12.5496 10.9286 53.1203 0 0 0 
113 2 1 13.7206 12.3989 60.1571 0 0 0 
114 3 1 17.3078 11.4281 60.9823 0 0 0 
116 2 1 7.38919 14.0148 66.4445 0 0 0 
117 3 1 3.94312 13.3089 67.6868 0 0 0 
115 1 1 10.7787 14.0733 64.5732 0 0 0 
118 1 1 11.3642 14.8084 68.0916 0 0 0 
119 2 1 14.8917 13.8692 67.1939 0 0 0 
120 3 1 18.4789 12.8984 68.0191 0 0 0 
ITEM: TIMESTEP
100000
ITEM: NUMBER OF ATOMS
120
ITEM: BOX BOUNDS pp pp pp
-153.898 153.898
-153.898 153.898
-153.898 153.898
ITEM: ATOMS id type mol x y z ix iy iz 
2 2 1 36.493 -38.7551 -28.8872 0 0 0 
10 1 1 33.9069 -32.1631 -35.7068 0 0 0 
9 3 1 41.5243 -29.0195 -36.48 0 0 0 
8 2 1 38.9995 -31.9487 -36.5234 0 0 0 
3 3 1 33.7817 -36.8122 -27.0676 0 0 0 
16 1 1 27.3033 -28.4439 -34.9023 0 0 0 
17 2 1 26.1009 -26.1753 -38.0376 0 0 0 
19 1 1 24.1764 -26.6896 -33.4676 0 0 0 
22 1 1 21.1537 -24.3383 -32.9699 0 0 0 
13 1 1 30.5873 -30.2012 -35.6143 0 0 0 
12 3 1 36.3015 -28.2742 -41.5164 0 0 0 
11 2 1 34.7975 -29.0226 -38.2394 0 0 0 
14 2 1 30.4586 -27.0041 -38.1762 0 0 0 
15 3 1 32.8649 -24.587 -39.7694 0 0 0 
30 3 1 10.4216 -18.4725 -31.7091 0 0 0 
29 2 1 13.1411 -19.1 -29.4576 0 0 0 
25 1 1 18.9849 -22.1057 -30.7495 0 0 0 
18 3 1 26.1009 -24.8206 -41.153 0 0 0 
24 3 1 17.3298 -20.2097 -37.499 0 0 0 
23 2 1 17.8418 -23.38 -35.2449 0 0 0 
1 1 1 38.4684 -41.4506 -31.2571 0 0 0 
6 3 1 37.7217 -39.8967 -40.6141 0 0 0 
7 1 1 36.651 -34.6851 -34.4953 0 0 0 
5 2 1 37.3102 -38.331 -37.2327 0 0 0 
4 1 1 37.8652 -38.101 -33.1807 0 0 0 
21 3 1 25.5249 -26.9633 -26.7905 0 0 0 
27 3 1 23.713 -19.668 -25.5795 0 0 0 
20 2 1 23.477 -27.3879 -29.4769 0 0 0 
35 2 1 10.7569 -14.6598 -21.7561 0 0 0 
36 3 1 9.01153 -11.6032 -22.0361 0 0 0 
39 3 1 7.38462 -12.0271 -16.7188 0 0 0 
26 2 1 21.1227 -19.9728 -28.0044 0 0 0 
31 1 1 15.5807 -18.022 -25.1774 0 0 0 
34 1 1 14.4633 -16.0593 -21.9484 0 0 0 
28 1 1 16.9433 -20.0192 -28.2062 0 0 0 
32 2 1 18.6753 -17.2422 -22.6687 0 0 0 
38 2 1 10.9413 -12.2494 -17.687 0 0 0 
37 1 1 14.3062 -14.0612 -18.6652 0 0 0 
33 3 1 21.2494 -14.3777 -22.9815 0 0 0 
40 1 1 14.7361 -12.145 -15.2976 0 0 0 
42 3 1 20.7912 -13.2655 -15.0065 0 0 0 
41 2 1 17.5383 -13.4317 -12.8258 0 0 0 
44 2 1 11.1419 -7.25648 -12.2253 0 0 0 
45 3 1 8.13173 -6.20638 -13.8757 0 0 0 
46 1 1 14.2413 -8.84747 -8.50784 0 0 0 
43 1 1 14.1435 -9.93938 -12.211 0 0 0 
60 3 1 -0.235023 -4.27636 -1.2661 0 0 0 
55 1 1 9.12549 -4.60536 0.712931 0 0 0 
49 1 1 13.216 -7.58197 -5.05644 0 0 0 
47 2 1 17.9569 -9.70218 -6.76086 0 0 0 
48 3 1 21.3102 -11.0573 -7.89145 0 0 0 
52 1 1 11.5428 -6.02163 -1.94706 0 0 0 
53 2 1 14.0822 -4.3383 0.81662 0 0 0 
50 2 1 15.3716 -8.56793 -2.60112 0 0 0 
51 3 1 18.2894 -7.14774 -1.31437 0 0 0 
54 3 1 15.9517 -3.85565 4.08957 0 0 0 
66 3 1 -3.85092 2.52931 -1.14346 0 0 0 
59 2 1 2.49144 -3.25678 0.832474 0 0 0 
61 1 1 4.01636 0.254012 3.38449 0 0 0 
58 1 1 5.89071 -2.78875 1.72609 0 0 0 
75 3 1 -10.125 11.8169 3.18477 0 0 0 
74 2 1 -8.32219 11.2254 6.59626 0 0 0 
65 2 1 -1.4226 3.47387 1.6593 0 0 0 
64 1 1 1.70455 3.06975 4.24333 0 0 0 
67 1 1 -0.431265 6.07823 5.86784 0 0 0 
71 2 1 -2.28247 8.29341 12.0703 0 0 0 
69 3 1 -3.83522 8.64249 0.112046 0 0 0 
68 2 1 -1.48367 8.80279 3.12128 0 0 0 
70 1 1 -2.63658 8.46792 8.03007 0 0 0 
56 2 1 9.41866 -3.95877 4.57534 0 0 0 
57 3 1 9.6257 -5.09167 8.21154 0 0 0 
63 3 1 8.71613 5.40477 5.92889 0 0 0 
62 2 1 6.21135 3.0549 5.33185 0 0 0 
72 3 1 -0.690955 7.41973 15.025 0 0 0 
73 1 1 -5.42043 11.026 9.28717 0 0 0 
76 1 1 -7.48532 13.8459 11.0415 0 0 0 
77 2 1 -5.88576 16.746 13.2148 0 0 0 
78 3 1 -4.04143 19.0588 15.5984 0 0 0 
81 3 1 -15.7605 17.2199 7.40245 0 0 0 
82 1 1 -13.3961 17.4617 14.7226 0 0 0 
85 1 1 -16.2597 18.3627 17.3041 0 0 0 
80 2 1 -13.454 15.5818 9.94325 0 0 0 
79 1 1 -10.6174 15.8269 12.5328 0 0 0 
83 2 1 -12.0236 20.6321 16.8489 0 0 0 
84 3 1 -8.68204 22.199 17.6384 0 0 0 
93 3 1 -25.2206 16.2772 24.6679 0 0 0 
92 2 1 -23.6232 19.3331 24.736 0 0 0 
86 2 1 -18.8767 15.8712 19.396 0 0 0 
87 3 1 -21.5125 13.3529 19.8784 0 0 0 
94 1 1 -22.7968 24.0102 24.427 0 0 0 
97 1 1 -25.1184 25.6459 26.9944 0 0 0 
100 1 1 -27.5308 26.6552 29.8259 0 0 0 
103 1 1 -30.178 26.6924 32.5287 0 0 0 
89 2 1 -20.533 23.4473 18.9168 0 0 0 
90 3 1 -21.0131 27.1522 18.5367 0 0 0 
88 1 1 -18.5277 20.0685 19.5839 0 0 0 
95 2 1 -22.7619 28.1058 24.1743 0 0 0 
91 1 1 -20.9574 21.3365 22.3287 0 0 0 
104 2 1 -31.5416 30.0441 34.3574 0 0 0 
105 3 1 -33.3607 33.4515 34.1821 0 0 0 
98 2 1 -25.7022 29.4889 27.8268 0 0 0 
101 2 1 -28.6078 30.4868 30.9513 0 0 0 
102 3 1 -27.797 33.7337 32.9544 0 0 0 
99 3 1 -24.8231 33.1063 26.877 0 0 0 
96 3 1 -21.0927 30.9579 22.4916 0 0 0 
116 2 1 -46.2405 22.094 36.3028 0 0 0 
117 3 1 -47.5072 20.5325 33.2358 0 0 0 
115 1 1 -43.9941 24.3883 38.9727 0 0 0 
118 1 1 -47.501 24.2571 40.653 0 0 0 
111 3 1 -42.1436 21.4864 31.6753 0 0 0 
113 2 1 -40.8026 26.1434 41.9254 0 0 0 
112 1 1 -40.2843 24.8239 38.0268 0 0 0 
109 1 1 -37.0023 24.7995 35.7684 0 0 0 
106 1 1 -33.4956 25.9537 34.547 0 0 0 
110 2 1 -39.7635 22.426 34.0207 0 0 0 
107 2 1 -35.1013 27.5831 37.9075 0 0 0 
108 3 1 -38.1056 29.8977 38.0155 0 0 0 
119 2 1 -49.4188 26.3578 43.3486 0 0 0 
120 3 1 -48.7921 28.778 46.2059 0 0 0 
114 3 1 -42.8961 27.8295 44.6355 0 0 0 
ITEM: TIMESTEP
200000
ITEM: NUMBER OF ATOMS
120
ITEM: BOX BOUNDS pp pp pp
-153.898 153.898
-153.898 153.898
-153.898 153.898
ITEM: ATOMS id type mol x y z ix iy iz 
120 3 1 -28.5719 25.4252 -39.8956 0 0 0 
116 2 1 -31.7331 23.4362 -34.5604 0 0 0 
117 3 1 -34.0614 20.6457 -33.9234 0 0 0 
111 3 1 -34.1614 15.3046 -28.5444 0 0 0 
119 2 1 -30.2135 27.4926 -37.3831 0 0 0 
118 1 1 -30.3044 27.8301 -33.4925 0 0 0 
115 1 1 -30.0733 24.5761 -31.2353 0 0 0 
2 2 1 34.3513 -12.5593 -19.6121 0 0 0 
3 3 1 30.5441 -12.412 -20.3351 0 0 0 
1 1 1 38.1437 -11.2519 -19.2694 0 0 0 
105 3 1 -35.706 14.216 -23.0966 0 0 0 
108 3 1 -23.1104 20.4855 -26.3671 0 0 0 
104 2 1 -32.1464 14.2549 -21.7488 0 0 0 
110 2 1 -32.5729 18.1538 -27.4965 0 0 0 
109 1 1 -29.3828 19.5085 -25.3922 0 0 0 
112 1 1 -29.532 21.8249 -28.5839 0 0 0 
107 2 1 -25.092 19.3323 -23.662 0 0 0 
106 1 1 -28.4332 17.3727 -22.3484 0 0 0 
114 3 1 -24.7635 21.9064 -33.6333 0 0 0 
113 2 1 -27.9097 21.2944 -31.7122 0 0 0 
12 3 1 28.5534 -17.318 -9.65488 0 0 0 
4 1 1 37.3295 -13.0256 -15.888 0 0 0 
8 2 1 39.2689 -15.12 -10.0505 0 0 0 
13 1 1 35.7915 -19.1003 -6.16919 0 0 0 
11 2 1 32.0006 -17.1814 -8.62286 0 0 0 
7 1 1 36.954 -15.0918 -12.6776 0 0 0 
10 1 1 35.867 -17.2016 -9.59329 0 0 0 
9 3 1 42.3151 -16.4851 -8.867 0 0 0 
6 3 1 44.4457 -13.0433 -12.7107 0 0 0 
5 2 1 40.7628 -12.6178 -13.6957 0 0 0 
102 3 1 -32.2272 7.61378 -18.6861 0 0 0 
98 2 1 -26.8329 8.36757 -14.8416 0 0 0 
101 2 1 -29.8001 10.0637 -18.6205 0 0 0 
95 2 1 -21.8682 9.02344 -11.254 0 0 0 
99 3 1 -29.0801 5.5737 -15.1066 0 0 0 
100 1 1 -27.524 12.8394 -16.5847 0 0 0 
103 1 1 -28.8777 14.7369 -19.5783 0 0 0 
97 1 1 -25.9459 11.7321 -13.1835 0 0 0 
93 3 1 -30.761 14.3235 -6.80571 0 0 0 
96 3 1 -20.3681 5.66591 -11.4256 0 0 0 
17 2 1 36.3712 -21.9778 0.596452 0 0 0 
21 3 1 33.6788 -28.6192 3.17783 0 0 0 
20 2 1 32.3867 -26.2714 0.981908 0 0 0 
14 2 1 38.8059 -21.3337 -4.82231 0 0 0 
18 3 1 37.7753 -24.3825 2.97749 0 0 0 
15 3 1 42.3152 -22.6857 -5.44916 0 0 0 
19 1 1 31.8065 -22.7579 -0.937345 0 0 0 
22 1 1 28.2953 -23.357 0.766618 0 0 0 
16 1 1 34.4544 -20.7759 -2.94854 0 0 0 
86 2 1 -17.3713 11.6422 -3.46083 0 0 0 
87 3 1 -15.4911 9.98368 -5.98974 0 0 0 
84 3 1 -12.8196 16.4526 -0.490747 0 0 0 
90 3 1 -29.3814 14.4509 -2.17179 0 0 0 
92 2 1 -27.1784 14.1466 -6.86509 0 0 0 
89 2 1 -25.6122 13.4389 -1.90995 0 0 0 
94 1 1 -24.4403 11.4859 -9.59967 0 0 0 
91 1 1 -24.0885 12.5437 -6.02384 0 0 0 
88 1 1 -21.8559 12.4726 -2.77587 0 0 0 
39 3 1 12.9512 -19.7544 13.894 0 0 0 
27 3 1 20.5417 -28.8515 3.87324 0 0 0 
30 3 1 15.9934 -24.764 3.03452 0 0 0 
29 2 1 18.2796 -22.6196 4.64362 0 0 0 
34 1 1 18.7 -14.9522 8.13643 0 0 0 
38 2 1 14.1679 -16.3 13.27 0 0 0 
26 2 1 22.2376 -25.6286 2.63552 0 0 0 
25 1 1 24.8764 -22.7706 2.48336 0 0 0 
23 2 1 26.8538 -26.4929 0.317751 0 0 0 
24 3 1 26.4074 -28.4999 -2.98632 0 0 0 
28 1 1 22.0168 -20.8015 4.20266 0 0 0 
31 1 1 20.5444 -17.6871 6.05817 0 0 0 
32 2 1 22.0334 -14.3527 5.74824 0 0 0 
81 3 1 -12.8747 7.99207 0.235848 0 0 0 
80 2 1 -13.9424 8.66523 3.49821 0 0 0 
85 1 1 -18.9851 11.9143 -0.174484 0 0 0 
83 2 1 -14.5434 13.5033 0.496941 0 0 0 
82 1 1 -16.8746 11.4113 3.01673 0 0 0 
79 1 1 -15.6379 10.669 6.56501 0 0 0 
78 3 1 -22.2747 13.2035 9.60706 0 0 0 
48 3 1 2.26244 -5.95532 16.6374 0 0 0 
44 2 1 8.04775 -10.5742 15.8696 0 0 0 
45 3 1 4.63341 -10.451 14.1757 0 0 0 
43 1 1 11.8671 -9.47666 15.2099 0 0 0 
47 2 1 6.11245 -5.70001 16.6057 0 0 0 
42 3 1 18.5596 -5.53749 12.242 0 0 0 
37 1 1 16.4423 -13.7492 10.9942 0 0 0 
40 1 1 14.5014 -11.2071 13.0781 0 0 0 
46 1 1 9.82699 -7.11733 17.6698 0 0 0 
35 2 1 18.6942 -10.9695 8.56689 0 0 0 
36 3 1 19.7874 -7.52707 7.88201 0 0 0 
41 2 1 15.675 -7.80661 13.0222 0 0 0 
33 3 1 23.3924 -11.3043 7.55014 0 0 0 
66 3 1 -9.82849 0.876494 13.7991 0 0 0 
65 2 1 -9.29077 2.82124 16.6787 0 0 0 
67 1 1 -9.73586 7.2939 19.2759 0 0 0 
77 2 1 -19.1204 11.9656 9.50593 0 0 0 
76 1 1 -15.4087 10.8493 10.4294 0 0 0 
73 1 1 -14.3999 10.6734 14.088 0 0 0 
74 2 1 -17.5501 13.0953 14.5444 0 0 0 
75 3 1 -21.0226 14.3406 15.6268 0 0 0 
72 3 1 -18.8652 10.9439 21.1982 0 0 0 
71 2 1 -16.1094 10.0426 18.6572 0 0 0 
70 1 1 -12.3224 9.30949 17.1163 0 0 0 
56 2 1 2.68321 2.4967 26.0484 0 0 0 
55 1 1 3.15865 0.364582 22.5815 0 0 0 
53 2 1 7.34704 1.53464 23.7514 0 0 0 
49 1 1 8.79391 -4.5044 20.3017 0 0 0 
50 2 1 10.7585 -2.51097 23.4226 0 0 0 
52 1 1 6.19051 -1.86491 21.7398 0 0 0 
54 3 1 8.72567 3.31392 26.6166 0 0 0 
51 3 1 12.5153 -1.92896 26.6931 0 0 0 
59 2 1 -1.17212 3.10785 25.6449 0 0 0 
58 1 1 -0.247068 2.03618 22.3491 0 0 0 
61 1 1 -3.74692 3.41364 21.3975 0 0 0 
64 1 1 -6.99333 4.57486 19.6668 0 0 0 
62 2 1 -5.64173 5.93547 23.8786 0 0 0 
63 3 1 -5.34941 8.3094 26.351 0 0 0 
68 2 1 -11.9318 9.82846 21.4296 0 0 0 
69 3 1 -13.4678 11.4823 24.3188 0 0 0 
57 3 1 2.96844 5.99043 26.3857 0 0 0 
60 3 1 -2.70116 2.3198 29.0924 0 0 0 
ITEM: TIMESTEP
300000
ITEM: NUMBER OF ATOMS
120
ITEM: BOX BOUNDS pp pp pp
-153.898 153.898
-153.898 153.898
-153.898 153.898
ITEM: ATOMS id type mol x y z ix iy iz 
119 2 1 -46.3419 15.6805 -47.1247 0 0 0 
118 1 1 -42.9241 17.7464 -46.5008 0 0 0 
120 3 1 -47.6417 13.6469 -49.8854 0 0 0 
115 1 1 -41.4331 19.6925 -43.3345 0 0 0 
117 3 1 -36.558 22.8829 -48.33 0 0 0 
116 2 1 -39.2535 21.2644 -46.3832 0 0 0 
112 1 1 -41.2179 20.1581 -39.5406 0 0 0 
113 2 1 -45.098 20.1923 -40.642 0 0 0 
109 1 1 -40.3054 20.4624 -35.7421 0 0 0 
99 3 1 -31.5662 15.8357 -31.37 0 0 0 
114 3 1 -48.6685 21.2006 -39.5805 0 0 0 
111 3 1 -47.5356 21.0485 -34.1616 0 0 0 
107 2 1 -41.6162 20.9027 -31.2073 0 0 0 
110 2 1 -44.0804 21.2091 -35.6191 0 0 0 
104 2 1 -32.8733 20.6775 -33.7212 0 0 0 
106 1 1 -37.8537 20.6071 -32.6644 0 0 0 
105 3 1 -30.4346 22.3742 -36.0794 0 0 0 
108 3 1 -45.1228 19.8864 -30.238 0 0 0 
103 1 1 -34.8303 20.5066 -30.1596 0 0 0 
100 1 1 -32.5497 20.1216 -27.0638 0 0 0 
101 2 1 -36.0441 20.4013 -25.0456 0 0 0 
98 2 1 -29.7002 17.7006 -28.787 0 0 0 
97 1 1 -29.1801 19.4352 -25.187 0 0 0 
94 1 1 -26.2387 19.0175 -22.8458 0 0 0 
95 2 1 -25.4429 16.9246 -26.2422 0 0 0 
96 3 1 -24.6148 14.1267 -28.2113 0 0 0 
102 3 1 -39.1896 22.5979 -25.0848 0 0 0 
84 3 1 -19.421 10.2219 -19.2565 0 0 0 
81 3 1 -16.3313 5.10761 -16.1803 0 0 0 
80 2 1 -16.402 7.51238 -13.6494 0 0 0 
75 3 1 -13.0218 3.08494 -12.0265 0 0 0 
79 1 1 -15.5115 10.1672 -10.6568 0 0 0 
88 1 1 -20.9958 17.8946 -17.3289 0 0 0 
91 1 1 -23.5625 19.0158 -20.1444 0 0 0 
83 2 1 -20.6491 11.0303 -15.9248 0 0 0 
85 1 1 -18.9597 15.3887 -15.3513 0 0 0 
82 1 1 -17.6915 12.2251 -13.3018 0 0 0 
87 3 1 -13.1624 19.4984 -16.5811 0 0 0 
86 2 1 -16.3871 17.7942 -16.8182 0 0 0 
92 2 1 -25.767 22.2174 -19.7927 0 0 0 
89 2 1 -21.2488 21.9351 -17.2345 0 0 0 
93 3 1 -28.7627 24.3804 -18.6417 0 0 0 
90 3 1 -20.2687 25.6512 -17.1956 0 0 0 
68 2 1 -10.311 -0.691534 -1.96223 0 0 0 
69 3 1 -10.1961 -2.95692 -4.58908 0 0 0 
76 1 1 -13.6595 8.54075 -7.49504 0 0 0 
74 2 1 -12.3722 3.52655 -8.54321 0 0 0 
73 1 1 -11.2511 6.02741 -5.4437 0 0 0 
67 1 1 -7.2692 1.42206 -0.782176 0 0 0 
70 1 1 -9.02409 4.27927 -2.79433 0 0 0 
71 2 1 -7.82874 8.0655 -2.74487 0 0 0 
78 3 1 -17.3111 14.6077 -4.65636 0 0 0 
77 2 1 -14.6495 12.1944 -6.00672 0 0 0 
72 3 1 -5.95443 11.4447 -2.77148 0 0 0 
57 3 1 -2.45944 -12.1821 3.28595 0 0 0 
63 3 1 -10.5567 -3.0331 2.43007 0 0 0 
62 2 1 -6.86633 -3.4337 3.20107 0 0 0 
61 1 1 -3.16228 -2.62163 4.23234 0 0 0 
56 2 1 -2.05147 -8.85535 5.15543 0 0 0 
58 1 1 -0.451613 -4.26033 6.22818 0 0 0 
52 1 1 3.03558 -10.2046 9.66362 0 0 0 
59 2 1 0.670913 -0.462825 6.33771 0 0 0 
55 1 1 0.941656 -7.63871 7.66455 0 0 0 
53 2 1 4.78351 -10.1493 6.06843 0 0 0 
54 3 1 8.60038 -9.55521 5.95999 0 0 0 
64 1 1 -4.7665 0.0320288 1.83201 0 0 0 
65 2 1 -3.19885 3.5131 0.470858 0 0 0 
66 3 1 -2.02421 6.56448 1.21809 0 0 0 
60 3 1 0.0148864 2.71851 7.31424 0 0 0 
39 3 1 17.5071 -22.323 14.4142 0 0 0 
51 3 1 -3.46599 -11.4262 14.5954 0 0 0 
47 2 1 6.19988 -11.1599 17.06 0 0 0 
49 1 1 4.02764 -12.3495 12.8814 0 0 0 
50 2 1 0.328238 -11.2618 13.9119 0 0 0 
46 1 1 6.90534 -14.3769 14.7806 0 0 0 
44 2 1 9.54446 -18.2452 12.2003 0 0 0 
45 3 1 6.38933 -19.3709 11.5272 0 0 0 
43 1 1 10.2385 -16.2506 15.7334 0 0 0 
40 1 1 13.2586 -17.016 17.9905 0 0 0 
38 2 1 17.4047 -18.5409 15.313 0 0 0 
37 1 1 16.7121 -18.1959 19.2504 0 0 0 
33 3 1 24.7789 -15.986 16.6136 0 0 0 
32 2 1 23.2755 -18.1706 19.1788 0 0 0 
48 3 1 5.02413 -9.88611 20.2018 0 0 0 
1 1 1 47.2162 -0.550405 19.7056 0 0 0 
36 3 1 15.8337 -21.6354 27.3179 0 0 0 
35 2 1 16.9865 -20.6546 23.7733 0 0 0 
29 2 1 24.1264 -23.4279 26.5449 0 0 0 
30 3 1 23.7834 -26.6301 27.6524 0 0 0 
26 2 1 29.0479 -23.8696 27.1437 0 0 0 
27 3 1 28.8523 -27.4827 26.0683 0 0 0 
24 3 1 33.4001 -23.8663 21.7805 0 0 0 
23 2 1 33.5529 -22.0177 25.1906 0 0 0 
41 2 1 11.0659 -14.766 20.7173 0 0 0 
42 3 1 11.2537 -11.547 22.5507 0 0 0 
34 1 1 19.5663 -18.9755 21.6049 0 0 0 
31 1 1 23.3101 -19.4601 22.9376 0 0 0 
28 1 1 26.4341 -20.3495 24.9816 0 0 0 
25 1 1 29.9456 -19.9266 26.4933 0 0 0 
19 1 1 36.7571 -17.2848 29.167 0 0 0 
22 1 1 33.5544 -18.9234 27.6562 0 0 0 
16 1 1 39.9443 -15.1961 28.3326 0 0 0 
13 1 1 42.8366 -13.4435 26.5469 0 0 0 
10 1 1 44.5049 -10.395 24.9003 0 0 0 
11 2 1 47.6738 -12.6766 25.7884 0 0 0 
14 2 1 44.5169 -17.0647 26.4487 0 0 0 
12 3 1 50.6734 -14.2003 27.1695 0 0 0 
15 3 1 47.5936 -18.6534 25.6967 0 0 0 
9 3 1 38.2874 -6.87807 26.9873 0 0 0 
8 2 1 40.8431 -7.11672 24.6877 0 0 0 
4 1 1 46.0518 -3.68404 21.7546 0 0 0 
7 1 1 44.5968 -6.89795 23.3052 0 0 0 
2 2 1 50.0378 -1.14077 22.7924 0 0 0 
5 2 1 49.0611 -5.81852 23.3653 0 0 0 
6 3 1 51.493 -8.14878 23.5836 0 0 0 
3 3 1 53.122 -2.54965 23.8866 0 0 0 
21 3 1 35.7875 -18.1667 36.2205 0 0 0 
17 2 1 40.4163 -16.3006 32.1908 0 0 0 
20 2 1 35.359 -18.1016 32.7297 0 0 0 
18 3 1 42.8485 -18.1668 34.0926 0 0 0 
ITEM: TIMESTEP
400000
ITEM: NUMBER OF ATOMS
120
ITEM: BOX BOUNDS pp pp pp
-153.898 153.898
-153.898 153.898
-153.898 153.898
ITEM: ATOMS id type mol x y z ix iy iz 
119 2 1 -13.9374 1.92397 -48.1371 0 0 0 
118 1 1 -17.2733 0.18538 -49.6265 0 0 0 
120 3 1 -11.9874 4.09654 -45.7338 0 0 0 
117 3 1 -23.9623 -4.84474 -50.9675 0 0 0 
116 2 1 -21.1233 -2.1044 -51.0443 0 0 0 
107 2 1 -26.3473 -8.05008 -40.9492 0 0 0 
115 1 1 -20.0457 -1.10831 -47.2955 0 0 0 
112 1 1 -21.5421 -1.9745 -43.8388 0 0 0 
113 2 1 -18.234 0.326343 -42.9719 0 0 0 
111 3 1 -16.3262 -4.80856 -40.972 0 0 0 
110 2 1 -19.5797 -3.08354 -40.9591 0 0 0 
109 1 1 -23.6103 -3.79249 -41.1116 0 0 0 
114 3 1 -14.7617 0.662059 -41.5939 0 0 0 
108 3 1 -26.6738 -10.931 -43.321 0 0 0 
103 1 1 -25.2791 -7.29226 -34.3988 0 0 0 
99 3 1 -31.0305 -16.3358 -28.4966 0 0 0 
98 2 1 -29.047 -13.0062 -29.0001 0 0 0 
97 1 1 -25.7313 -10.9193 -27.941 0 0 0 
100 1 1 -26.4507 -9.29189 -31.3186 0 0 0 
101 2 1 -29.4545 -10.0664 -33.9972 0 0 0 
102 3 1 -32.3773 -12.3825 -34.5463 0 0 0 
104 2 1 -22.9383 -4.15316 -33.7315 0 0 0 
105 3 1 -23.6737 -0.505211 -34.5822 0 0 0 
106 1 1 -24.9168 -5.78543 -37.8793 0 0 0 
96 3 1 -28.6512 -14.482 -20.5705 0 0 0 
93 3 1 -24.4353 -17.2802 -21.2456 0 0 0 
95 2 1 -26.6573 -13.6518 -23.3917 0 0 0 
94 1 1 -23.3613 -11.7184 -24.9501 0 0 0 
92 2 1 -22.8534 -14.3063 -20.3683 0 0 0 
89 2 1 -17.8245 -14.8664 -20.9853 0 0 0 
88 1 1 -16.6938 -11.5019 -21.1564 0 0 0 
91 1 1 -20.2989 -12.0059 -22.6316 0 0 0 
84 3 1 -6.26009 -13.3336 -21.5862 0 0 0 
83 2 1 -8.33258 -10.2993 -21.2842 0 0 0 
78 3 1 -10.0006 1.5431 -24.3443 0 0 0 
90 3 1 -18.0377 -18.5338 -21.0654 0 0 0 
86 2 1 -13.2085 -14.0218 -20.6043 0 0 0 
87 3 1 -11.1965 -17.3938 -20.6543 0 0 0 
85 1 1 -13.233 -10.0063 -20.2261 0 0 0 
82 1 1 -10.439 -7.36451 -19.5803 0 0 0 
81 3 1 -12.9155 -4.75584 -12.5244 0 0 0 
77 2 1 -8.80073 0.151391 -21.1855 0 0 0 
75 3 1 -2.71958 5.21519 -22.8649 0 0 0 
79 1 1 -8.60353 -4.08298 -18.6657 0 0 0 
80 2 1 -11.5933 -4.63471 -16.131 0 0 0 
76 1 1 -6.29664 -1.02308 -18.2664 0 0 0 
73 1 1 -3.58741 0.974113 -16.4936 0 0 0 
74 2 1 -2.90916 2.53524 -20.2289 0 0 0 
72 3 1 0.349223 7.50319 -18.661 0 0 0 
71 2 1 0.235332 4.50132 -16.7691 0 0 0 
70 1 1 -0.792939 1.89527 -13.9536 0 0 0 
69 3 1 -5.27351 -2.52957 -9.84775 0 0 0 
66 3 1 6.13923 5.5822 -14.5005 0 0 0 
65 2 1 5.47148 2.58388 -12.1924 0 0 0 
68 2 1 -1.91344 -1.46746 -10.0463 0 0 0 
67 1 1 1.26464 1.19738 -10.7054 0 0 0 
64 1 1 4.41274 1.26309 -8.45365 0 0 0 
62 2 1 4.24992 -0.925437 -3.43449 0 0 0 
63 3 1 2.00474 -2.44541 -0.878168 0 0 0 
61 1 1 7.08007 0.722853 -5.74128 0 0 0 
58 1 1 10.6108 1.10714 -4.16076 0 0 0 
59 2 1 11.058 2.81659 -7.86164 0 0 0 
55 1 1 13.1289 0.525022 -1.36777 0 0 0 
60 3 1 11.9277 4.96859 -10.4929 0 0 0 
57 3 1 12.9252 7.46631 -4.81223 0 0 0 
56 2 1 12.6686 4.32577 -2.51998 0 0 0 
51 3 1 15.2209 7.11206 3.25014 0 0 0 
45 3 1 16.5984 -7.21206 13.7067 0 0 0 
54 3 1 13.6923 -5.03035 -4.30792 0 0 0 
53 2 1 14.7073 -3.69105 -0.957195 0 0 0 
52 1 1 15.1558 -0.606303 1.60141 0 0 0 
50 2 1 15.236 3.48482 4.72544 0 0 0 
49 1 1 16.7235 -0.285391 5.09858 0 0 0 
46 1 1 18.6789 -0.44555 8.4437 0 0 0 
44 2 1 17.6907 -4.38717 11.8016 0 0 0 
48 3 1 23.0824 4.42567 4.35461 0 0 0 
47 2 1 21.5312 1.37521 6.14676 0 0 0 
42 3 1 20.542 -6.86852 17.0239 0 0 0 
36 3 1 15.4243 -0.870767 18.0153 0 0 0 
41 2 1 19.3688 -3.79857 16.049 0 0 0 
43 1 1 18.9368 -0.68296 12.1929 0 0 0 
40 1 1 19.5206 0.276751 15.7804 0 0 0 
37 1 1 20.5766 1.85175 19.2087 0 0 0 
38 2 1 24.1296 0.836723 17.6976 0 0 0 
39 3 1 27.233 -0.473253 16.6487 0 0 0 
34 1 1 19.1235 2.94234 22.6225 0 0 0 
31 1 1 18.8119 4.61335 26.1308 0 0 0 
35 2 1 15.7638 1.85322 20.5439 0 0 0 
28 1 1 17.7382 5.18357 29.7305 0 0 0 
32 2 1 22.1707 6.17278 24.4653 0 0 0 
33 3 1 25.2131 7.76539 24.3331 0 0 0 
29 2 1 20.63 7.83763 29.0214 0 0 0 
30 3 1 19.8063 10.5908 26.9841 0 0 0 
27 3 1 12.2726 -0.503359 27.4474 0 0 0 
25 1 1 15.4325 4.69394 32.6497 0 0 0 
22 1 1 14.1162 5.41682 36.1389 0 0 0 
26 2 1 13.7183 2.39132 29.7019 0 0 0 
23 2 1 11.332 3.61681 33.806 0 0 0 
24 3 1 8.31284 2.49115 32.305 0 0 0 
20 2 1 16.6279 8.64943 39.0905 0 0 0 
21 3 1 17.468 12.1649 37.7697 0 0 0 
19 1 1 13.4217 6.19315 39.763 0 0 0 
18 3 1 13.0582 -0.682801 41.925 0 0 0 
13 1 1 9.99092 8.3789 46.1107 0 0 0 
16 1 1 11.5671 6.54588 42.9829 0 0 0 
17 2 1 11.6863 2.65473 42.4244 0 0 0 
12 3 1 11.9838 4.51957 53.2994 0 0 0 
11 2 1 10.3043 6.37418 50.7389 0 0 0 
10 1 1 8.27963 9.44104 49.2476 0 0 0 
15 3 1 8.82464 10.7854 39.4211 0 0 0 
14 2 1 10.5668 10.5265 42.7615 0 0 0 
9 3 1 11.6448 12.9119 55.0405 0 0 0 
7 1 1 5.98755 12.1617 50.8757 0 0 0 
5 2 1 6.43491 17.0318 50.9131 0 0 0 
8 2 1 9.29997 11.0518 52.8163 0 0 0 
6 3 1 8.72789 19.7515 49.4804 0 0 0 
4 1 1 3.37541 14.7098 52.2499 0 0 0 
2 2 1 1.37376 19.9088 52.7403 0 0 0 
1 1 1 0.576316 16.486 54.3151 0 0 0 
3 3 1 3.22792 23.1995 52.781 0 0 0 
ITEM: TIMESTEP
500000
ITEM: NUMBER OF ATOMS
120
ITEM: BOX BOUNDS pp pp pp
-153.898 153.898
-153.898 153.898
-153.898 153.898
ITEM: ATOMS id type mol x y z ix iy iz 
114 3 1 5.80419 -12.2729 -52.7222 0 0 0 
120 3 1 13.7211 -17.6357 -59.1168 0 0 0 
119 2 1 14.5895 -16.6388 -55.9846 0 0 0 
118 1 1 14.6968 -17.2231 -51.9899 0 0 0 
117 3 1 17.0133 -21.0133 -46.1963 0 0 0 
113 2 1 8.91699 -12.6327 -50.46 0 0 0 
109 1 1 8.41136 -12.5353 -43.5649 0 0 0 
106 1 1 5.37296 -11.2344 -41.5035 0 0 0 
107 2 1 4.93684 -10.6063 -45.5654 0 0 0 
108 3 1 2.6426 -11.2714 -48.506 0 0 0 
116 2 1 15.6516 -17.7805 -47.4194 0 0 0 
115 1 1 13.0428 -15.5955 -48.8568 0 0 0 
112 1 1 10.4097 -13.5585 -46.7781 0 0 0 
110 2 1 10.9331 -15.686 -42.98 0 0 0 
102 3 1 2.86503 -5.62431 -42.6391 0 0 0 
104 2 1 5.10762 -13.7709 -37.6998 0 0 0 
105 3 1 7.44801 -16.6764 -38.2764 0 0 0 
99 3 1 1.62501 -14.7848 -34.2007 0 0 0 
98 2 1 0.858623 -11.3612 -32.9311 0 0 0 
103 1 1 2.92277 -10.4737 -38.6977 0 0 0 
111 3 1 12.605 -18.2496 -40.6842 0 0 0 
96 3 1 -7.08915 -1.46107 -34.3191 0 0 0 
95 2 1 -5.24278 -3.98462 -32.7933 0 0 0 
97 1 1 -1.33842 -8.0625 -33.0412 0 0 0 
101 2 1 0.997131 -6.36659 -39.8009 0 0 0 
100 1 1 0.511119 -8.47331 -36.3267 0 0 0 
93 3 1 -2.28752 -11.8483 -23.7423 0 0 0 
90 3 1 -10.9423 -1.00724 -27.4591 0 0 0 
94 1 1 -3.42472 -6.44785 -30.033 0 0 0 
92 2 1 -2.15708 -9.15855 -26.4083 0 0 0 
91 1 1 -4.28114 -5.79523 -26.1977 0 0 0 
89 2 1 -7.51939 -1.71685 -25.8191 0 0 0 
88 1 1 -5.73885 -4.21698 -22.9786 0 0 0 
86 2 1 -8.79744 -0.854521 -20.6535 0 0 0 
75 3 1 -8.14482 -12.5906 -13.1755 0 0 0 
85 1 1 -6.26033 -3.72821 -19.2697 0 0 0 
83 2 1 -2.24456 -4.01991 -16.2902 0 0 0 
79 1 1 -7.84546 -5.55641 -11.876 0 0 0 
82 1 1 -6.31235 -4.53478 -15.4935 0 0 0 
80 2 1 -7.5577 -1.43032 -11.59 0 0 0 
84 3 1 1.48008 -4.77689 -16.4159 0 0 0 
87 3 1 -10.7768 1.90207 -19.7627 0 0 0 
71 2 1 -11.6874 -14.6185 -5.56081 0 0 0 
72 3 1 -11.4574 -17.9326 -7.53143 0 0 0 
70 1 1 -11.6223 -11.6408 -2.95806 0 0 0 
69 3 1 -13.9171 -19.0389 -0.21781 0 0 0 
74 2 1 -9.41197 -12.1755 -9.64554 0 0 0 
73 1 1 -10.4486 -9.94086 -6.33079 0 0 0 
78 3 1 -12.2172 -0.468896 -8.69293 0 0 0 
77 2 1 -10.0902 -3.56398 -8.45469 0 0 0 
76 1 1 -9.2782 -7.53931 -9.02755 0 0 0 
81 3 1 -8.26842 1.61356 -10.0741 0 0 0 
66 3 1 -15.8338 -15.8639 4.67746 0 0 0 
68 2 1 -13.1014 -15.39 0.373407 0 0 0 
65 2 1 -15.8664 -12.4207 4.13364 0 0 0 
67 1 1 -13.0652 -11.4471 0.568445 0 0 0 
62 2 1 -16.5253 -9.21496 7.95611 0 0 0 
61 1 1 -14.7636 -6.22829 5.68358 0 0 0 
64 1 1 -14.1069 -9.22112 3.4519 0 0 0 
59 2 1 -14.481 -1.0916 3.82348 0 0 0 
60 3 1 -14.6529 -0.520266 0.419797 0 0 0 
58 1 1 -14.8827 -2.76079 7.44131 0 0 0 
63 3 1 -16.0728 -10.8369 11.1018 0 0 0 
56 2 1 -16.2711 -4.84487 11.073 0 0 0 
57 3 1 -20.0217 -5.25614 11.8267 0 0 0 
54 3 1 -17.5062 -4.91299 16.8855 0 0 0 
55 1 1 -15.411 -0.881903 10.8141 0 0 0 
53 2 1 -16.1592 -1.42877 15.785 0 0 0 
52 1 1 -15.5836 1.96421 13.4672 0 0 0 
49 1 1 -15.3168 5.25406 15.4533 0 0 0 
50 2 1 -17.577 2.90482 17.8735 0 0 0 
47 2 1 -17.8528 8.91683 17.2759 0 0 0 
46 1 1 -13.8003 8.7133 16.615 0 0 0 
48 3 1 -20.9052 10.9607 17.2662 0 0 0 
43 1 1 -10.8166 11.1872 16.846 0 0 0 
44 2 1 -14.157 13.432 17.0425 0 0 0 
45 3 1 -17.3087 14.9059 16.0604 0 0 0 
42 3 1 -11.2517 18.0549 13.3731 0 0 0 
33 3 1 -1.13834 20.1461 15.9316 0 0 0 
41 2 1 -10.0509 14.9548 14.6126 0 0 0 
38 2 1 -5.63831 18.0156 17.2155 0 0 0 
40 1 1 -7.69799 13.3126 17.5896 0 0 0 
37 1 1 -4.31832 14.5717 19.0438 0 0 0 
32 2 1 0.793037 17.7196 18.1149 0 0 0 
39 3 1 -7.73934 21.2515 16.9239 0 0 0 
30 3 1 7.94749 22.2593 18.8564 0 0 0 
51 3 1 -18.0539 0.412433 20.752 0 0 0 
36 3 1 -2.12413 9.41029 25.9171 0 0 0 
27 3 1 5.92563 8.76628 24.3864 0 0 0 
18 3 1 9.90626 9.25997 29.992 0 0 0 
17 2 1 13.6289 9.81766 29.7944 0 0 0 
35 2 1 -2.12564 12.355 23.6696 0 0 0 
34 1 1 -1.01782 15.3264 20.9894 0 0 0 
29 2 1 5.86789 20.3318 21.4944 0 0 0 
26 2 1 6.95888 12.0876 25.015 0 0 0 
31 1 1 2.66692 16.5034 21.4619 0 0 0 
28 1 1 6.05794 16.737 23.4139 0 0 0 
25 1 1 9.04857 15.6277 25.6874 0 0 0 
23 2 1 10.7623 19.0584 27.4041 0 0 0 
22 1 1 12.1441 15.5697 27.9848 0 0 0 
20 2 1 15.7854 18.1441 29.9725 0 0 0 
19 1 1 15.0848 14.3911 30.1944 0 0 0 
15 3 1 24.7337 14.3657 30.6291 0 0 0 
24 3 1 11.1125 22.619 26.2604 0 0 0 
13 1 1 19.6211 10.0327 34.023 0 0 0 
8 2 1 17.3466 7.84347 40.3888 0 0 0 
10 1 1 20.8904 7.79341 36.7839 0 0 0 
7 1 1 20.8725 5.76706 40.0924 0 0 0 
11 2 1 24.5382 7.79438 35.0115 0 0 0 
12 3 1 27.8603 6.89883 33.4685 0 0 0 
5 2 1 24.2406 2.76365 40.2066 0 0 0 
6 3 1 26.1385 0.166226 38.1671 0 0 0 
16 1 1 16.8589 11.5251 31.8026 0 0 0 
14 2 1 21.6893 12.2856 31.3169 0 0 0 
21 3 1 16.9558 21.6218 31.0154 0 0 0 
9 3 1 14.4278 9.43874 42.1369 0 0 0 
3 3 1 15.4013 5.66781 47.1936 0 0 0 
2 2 1 18.2197 3.90454 46.2353 0 0 0 
1 1 1 20.5313 1.18687 46.1765 0 0 0 
4 1 1 21.3212 3.11197 42.9384 0 0 0 
ITEM: TIMESTEP
600000
ITEM: NUMBER OF ATOMS
120
ITEM: BOX BOUNDS pp pp pp
-153.898 153.898
-153.898 153.898
-153.898 153.898
ITEM: ATOMS id type mol x y z ix iy iz 
105 3 1 -2.41866 -19.2888 -50.6971 0 0 0 
111 3 1 -1.75257 -13.8068 -54.9112 0 0 0 
110 2 1 0.327877 -13.1797 -51.6697 0 0 0 
114 3 1 3.39044 -6.75047 -56.709 0 0 0 
102 3 1 0.915717 -26.858 -45.0529 0 0 0 
101 2 1 0.27953 -23.6972 -43.7655 0 0 0 
104 2 1 -1.53804 -18.9336 -47.0013 0 0 0 
100 1 1 0.124143 -21.0213 -40.6695 0 0 0 
108 3 1 7.84393 -11.1192 -45.0223 0 0 0 
106 1 1 2.18865 -16.1145 -46.0553 0 0 0 
103 1 1 0.837082 -18.7684 -43.6977 0 0 0 