ITEM: TIMESTEP
0
ITEM: NUMBER OF ATOMS
126
ITEM: BOX BOUNDS pp pp pp
-156.421 156.421
-156.421 156.421
-156.421 156.421
ITEM: ATOMS id type mol x y z ix iy iz 
3 3 1 -18.8926 -15.3625 -69.5309 0 0 0 
6 3 1 -4.35678 -15.773 -69.1985 0 0 0 
2 2 1 -15.4465 -14.6566 -70.7731 0 0 0 
1 1 1 -12.057 -14.5981 -72.6444 0 0 0 
4 1 1 -11.4715 -13.8629 -69.126 0 0 0 
5 2 1 -7.944 -14.8021 -70.0237 0 0 0 
7 1 1 -10.8859 -13.1278 -65.6076 0 0 0 
9 3 1 -17.7215 -13.8922 -62.4941 0 0 0 
8 2 1 -14.2754 -13.1863 -63.7363 0 0 0 
10 1 1 -10.3004 -12.3926 -62.0892 0 0 0 
11 2 1 -6.77294 -13.3318 -62.9869 0 0 0 
13 1 1 -9.71487 -11.6575 -58.5708 0 0 0 
14 2 1 -13.1044 -11.7159 -56.6995 0 0 0 
17 2 1 -5.60187 -11.8615 -55.9501 0 0 0 
12 3 1 -3.18572 -14.3027 -62.1617 0 0 0 
15 3 1 -16.5505 -12.4218 -55.4573 0 0 0 
21 3 1 -15.3794 -10.9515 -48.4205 0 0 0 
16 1 1 -9.12934 -10.9223 -55.0524 0 0 0 
19 1 1 -8.54381 -10.1871 -51.534 0 0 0 
20 2 1 -11.9333 -10.2456 -49.6627 0 0 0 
22 1 1 -7.95828 -9.45196 -48.0156 0 0 0 
18 3 1 -2.01466 -12.8323 -55.1249 0 0 0 
23 2 1 -4.43081 -10.3911 -48.9133 0 0 0 
24 3 1 -0.843596 -11.362 -48.0881 0 0 0 
25 1 1 -7.37275 -8.7168 -44.4972 0 0 0 
26 2 1 -10.7623 -8.77528 -42.6259 0 0 0 
27 3 1 -14.2083 -9.4812 -41.3836 0 0 0 
28 1 1 -6.78722 -7.98163 -40.9788 0 0 0 
31 1 1 -6.20169 -7.24647 -37.4604 0 0 0 
32 2 1 -9.59121 -7.30495 -35.5891 0 0 0 
29 2 1 -3.25975 -8.92082 -41.8765 0 0 0 
30 3 1 0.327464 -9.89168 -41.0513 0 0 0 
33 3 1 -13.0373 -8.01088 -34.3468 0 0 0 
34 1 1 -5.61616 -6.51131 -33.942 0 0 0 
38 2 1 -8.42014 -5.83463 -28.5523 0 0 0 
39 3 1 -11.8662 -6.54055 -27.31 0 0 0 
35 2 1 -2.08869 -7.45049 -34.8397 0 0 0 
36 3 1 1.49853 -8.42135 -34.0145 0 0 0 
37 1 1 -5.03063 -5.77614 -30.4236 0 0 0 
41 2 1 -0.91763 -5.98017 -27.8029 0 0 0 
42 3 1 2.66959 -6.95103 -26.9778 0 0 0 
40 1 1 -4.4451 -5.04098 -26.9052 0 0 0 
45 3 1 -10.6951 -5.07022 -20.2732 0 0 0 
48 3 1 3.84065 -5.4807 -19.9409 0 0 0 
44 2 1 -7.24908 -4.3643 -21.5155 0 0 0 
43 1 1 -3.85956 -4.30582 -23.3868 0 0 0 
46 1 1 -3.27403 -3.57065 -19.8684 0 0 0 
47 2 1 0.253431 -4.50984 -20.7661 0 0 0 
49 1 1 -2.6885 -2.83549 -16.35 0 0 0 
50 2 1 -6.07802 -2.89397 -14.4787 0 0 0 
51 3 1 -9.52409 -3.5999 -13.2364 0 0 0 
57 3 1 -8.35303 -2.12957 -6.19964 0 0 0 
52 1 1 -2.10297 -2.10033 -12.8316 0 0 0 
53 2 1 1.42449 -3.03951 -13.7293 0 0 0 
54 3 1 5.01171 -4.01037 -12.9041 0 0 0 
55 1 1 -1.51744 -1.36516 -9.31319 0 0 0 
56 2 1 -4.90696 -1.42365 -7.44193 0 0 0 
58 1 1 -0.931911 -0.629998 -5.79479 0 0 0 
59 2 1 2.59555 -1.56918 -6.69249 0 0 0 
60 3 1 6.18277 -2.54004 -5.86735 0 0 0 
63 3 1 -7.18197 -0.659241 0.837158 0 0 0 
61 1 1 -0.34638 0.105164 -2.27638 0 0 0 
62 2 1 -3.7359 0.046681 -0.405124 0 0 0 
64 1 1 0.23915 0.840328 1.24202 0 0 0 
65 2 1 3.76661 -0.098857 0.344313 0 0 0 
67 1 1 0.82468 1.57549 4.76042 0 0 0 
66 3 1 7.35383 -1.06972 1.16945 0 0 0 
69 3 1 -6.01091 0.811085 7.87396 0 0 0 
68 2 1 -2.56484 1.51701 6.63168 0 0 0 
70 1 1 1.41021 2.31066 8.27882 0 0 0 
71 2 1 4.93768 1.37147 7.38111 0 0 0 
73 1 1 1.99574 3.04582 11.7972 0 0 0 
74 2 1 -1.39377 2.98733 13.6685 0 0 0 
75 3 1 -4.83985 2.28141 14.9108 0 0 0 
72 3 1 8.52489 0.400609 8.20626 0 0 0 
77 2 1 6.10874 2.8418 14.4179 0 0 0 
76 1 1 2.58127 3.78098 15.3156 0 0 0 
79 1 1 3.1668 4.51615 18.834 0 0 0 
80 2 1 -0.222713 4.45766 20.7053 0 0 0 
81 3 1 -3.66878 3.75174 21.9476 0 0 0 
78 3 1 9.69595 1.87094 15.2431 0 0 0 
83 2 1 7.2798 4.31212 21.4547 0 0 0 
84 3 1 10.867 3.34126 22.2798 0 0 0 
82 1 1 3.75233 5.25131 22.3524 0 0 0 
90 3 1 12.0381 4.81159 29.3167 0 0 0 
85 1 1 4.33786 5.98647 25.8708 0 0 0 
86 2 1 0.948347 5.92799 27.7421 0 0 0 
87 3 1 -2.49772 5.22207 28.9844 0 0 0 
88 1 1 4.9234 6.72164 29.3892 0 0 0 
92 2 1 2.11941 7.39832 34.7789 0 0 0 
89 2 1 8.45086 5.78245 28.4915 0 0 0 
91 1 1 5.50893 7.4568 32.9076 0 0 0 
93 3 1 -1.32666 6.69239 36.0212 0 0 0 
98 2 1 3.29047 8.86864 41.8157 0 0 0 
99 3 1 -0.155599 8.16272 43.058 0 0 0 
94 1 1 6.09446 8.19196 36.426 0 0 0 
95 2 1 9.62192 7.25278 35.5283 0 0 0 
96 3 1 13.2091 6.28192 36.3535 0 0 0 
97 1 1 6.67999 8.92713 39.9444 0 0 0 
100 1 1 7.26552 9.66229 43.4628 0 0 0 
101 2 1 10.793 8.72311 42.5651 0 0 0 
102 3 1 14.3802 7.75224 43.3903 0 0 0 
104 2 1 4.46153 10.339 48.8525 0 0 0 
105 3 1 1.01546 9.63305 50.0948 0 0 0 
103 1 1 7.85105 10.3974 46.9812 0 0 0 
106 1 1 8.43658 11.1326 50.4996 0 0 0 
107 2 1 11.964 10.1934 49.6019 0 0 0 
109 1 1 9.02211 11.8678 54.018 0 0 0 
108 3 1 15.5513 9.22257 50.4271 0 0 0 
111 3 1 2.18652 11.1034 57.1316 0 0 0 
117 3 1 3.35758 12.5737 64.1684 0 0 0 
110 2 1 5.63259 11.8093 55.8893 0 0 0 
112 1 1 9.60764 12.6029 57.5364 0 0 0 
113 2 1 13.1351 11.6638 56.6387 0 0 0 
115 1 1 10.1932 13.3381 61.0548 0 0 0 
116 2 1 6.80365 13.2796 62.9261 0 0 0 
118 1 1 10.7787 14.0733 64.5732 0 0 0 
119 2 1 14.3062 13.1341 63.6755 0 0 0 
114 3 1 16.7223 10.6929 57.4639 0 0 0 
120 3 1 17.8934 12.1632 64.5007 0 0 0 
123 3 1 4.52865 14.044 71.2052 0 0 0 
121 1 1 11.3642 14.8084 68.0916 0 0 0 
122 2 1 7.97472 14.75 69.9629 0 0 0 
125 2 1 15.4772 14.6044 70.7123 0 0 0 
126 3 1 19.0644 13.6335 71.5375 0 0 0 
124 1 1 11.9498 15.5436 71.61 0 0 0 
ITEM: TIMESTEP
100000
ITEM: NUMBER OF ATOMS
126
ITEM: BOX BOUNDS pp pp pp
-156.421 156.421
-156.421 156.421
-156.421 156.421
ITEM: ATOMS id type mol x y z ix iy iz 
6 3 1 30.6273 -4.83107 -57.0822 0 0 0 
12 3 1 38.7445 -11.7676 -49.8043 0 0 0 
15 3 1 38.5959 -15.9518 -43.777 0 0 0 
11 2 1 35.004 -11.9835 -48.9776 0 0 0 
14 2 1 35.0456 -14.7823 -43.6727 0 0 0 
13 1 1 32.058 -12.0855 -44.2985 0 0 0 
5 2 1 32.0467 -5.37653 -53.5459 0 0 0 
4 1 1 28.2512 -4.75067 -51.8531 0 0 0 
10 1 1 31.7949 -9.90052 -47.3759 0 0 0 
7 1 1 29.6765 -7.25214 -49.3457 0 0 0 
8 2 1 28.1372 -8.37003 -45.6911 0 0 0 
1 1 1 25.8514 -2.51656 -53.9743 0 0 0 
2 2 1 23.9475 -5.0924 -51.4374 0 0 0 
18 3 1 36.0127 -19.3582 -40.1274 0 0 0 
17 2 1 34.4198 -16.0493 -39.2903 0 0 0 
16 1 1 31.4131 -13.7112 -40.7221 0 0 0 
22 1 1 29.0199 -16.6958 -33.9756 0 0 0 
19 1 1 29.9608 -14.7819 -37.1914 0 0 0 
9 3 1 26.9965 -10.5665 -42.8696 0 0 0 
20 2 1 26.8216 -12.436 -36.5139 0 0 0 
21 3 1 23.9223 -10.7956 -37.7155 0 0 0 
3 3 1 21.3837 -5.83834 -49.1961 0 0 0 
33 3 1 22.3334 -20.8208 -17.9602 0 0 0 
27 3 1 28.2586 -25.5097 -27.4345 0 0 0 
32 2 1 23.3502 -18.6716 -20.6494 0 0 0 
28 1 1 26.0957 -18.3649 -27.1196 0 0 0 
31 1 1 23.4466 -17.3555 -24.4513 0 0 0 
24 3 1 34.9319 -19.0877 -33.9003 0 0 0 
23 2 1 31.2547 -19.9566 -33.3294 0 0 0 
25 1 1 27.7931 -18.2558 -30.5696 0 0 0 
26 2 1 28.4783 -21.996 -29.1943 0 0 0 
29 2 1 26.0452 -21.5514 -24.7166 0 0 0 
30 3 1 25.3491 -25.0197 -23.1791 0 0 0 
42 3 1 16.0044 -22.5025 -14.872 0 0 0 
41 2 1 15.2606 -19.1115 -15.022 0 0 0 
43 1 1 13.3677 -13.9657 -13.9476 0 0 0 
40 1 1 15.6138 -15.354 -16.8053 0 0 0 
46 1 1 10.6009 -12.8435 -11.5577 0 0 0 
44 2 1 14.4833 -10.4525 -12.5269 0 0 0 
34 1 1 20.4823 -15.7638 -22.5725 0 0 0 
39 3 1 15.0731 -8.0083 -18.9107 0 0 0 
35 2 1 18.2195 -12.5101 -23.9447 0 0 0 
37 1 1 17.5953 -14.9631 -20.0398 0 0 0 
38 2 1 15.5598 -11.4529 -19.7639 0 0 0 
36 3 1 17.8522 -9.34251 -25.2704 0 0 0 
45 3 1 15.9373 -7.04709 -12.5703 0 0 0 
53 2 1 4.00078 -15.4399 -4.27557 0 0 0 
54 3 1 2.05345 -18.1425 -3.19179 0 0 0 
48 3 1 5.82814 -18.4198 -9.35659 0 0 0 
55 1 1 2.38377 -10.4541 -4.25515 0 0 0 
52 1 1 5.30989 -11.965 -6.20884 0 0 0 
50 2 1 7.15814 -7.97529 -7.26414 0 0 0 
56 2 1 1.9579 -6.47821 -4.17165 0 0 0 
47 2 1 7.71452 -15.5794 -11.2492 0 0 0 
49 1 1 8.12556 -11.6903 -8.83452 0 0 0 
51 3 1 7.18391 -4.24746 -6.37588 0 0 0 
60 3 1 -4.33493 -14.9568 1.68675 0 0 0 
63 3 1 -4.79506 -9.74654 5.56484 0 0 0 
59 2 1 -2.92889 -13.0642 -0.881487 0 0 0 
71 2 1 -15.3499 -8.1038 3.80199 0 0 0 
62 2 1 -5.46243 -9.30079 1.71086 0 0 0 
64 1 1 -7.58021 -6.25687 -1.91788 0 0 0 
61 1 1 -4.20562 -8.2371 -1.96861 0 0 0 
58 1 1 -0.961172 -10.0296 -2.66667 0 0 0 
57 3 1 1.05471 -3.51634 -6.03258 0 0 0 
65 2 1 -10.0692 -4.96775 -4.80161 0 0 0 
72 3 1 -16.9018 -11.0865 3.05147 0 0 0 
66 3 1 -8.08417 -2.37685 -6.50053 0 0 0 
67 1 1 -10.6461 -5.04372 0.0559691 0 0 0 
70 1 1 -13.2884 -4.76389 2.89236 0 0 0 
69 3 1 -15.6961 0.561445 0.795711 0 0 0 
68 2 1 -13.7999 -2.48964 -0.621387 0 0 0 
80 2 1 -20.6453 5.25781 8.41622 0 0 0 
76 1 1 -17.5717 -0.981589 8.44601 0 0 0 
74 2 1 -14.9794 0.949783 6.25519 0 0 0 
73 1 1 -15.5716 -3.11291 5.82796 0 0 0 
75 3 1 -15.9581 4.69481 6.21054 0 0 0 
79 1 1 -18.16 2.4613 9.98248 0 0 0 
86 2 1 -17.9664 11.9678 12.8107 0 0 0 
85 1 1 -18.4076 8.68053 14.2995 0 0 0 
82 1 1 -18.0075 5.51191 12.1928 0 0 0 
84 3 1 -11.3558 5.42609 15.9851 0 0 0 
83 2 1 -14.5209 6.57475 14.1373 0 0 0 
87 3 1 -18.3779 14.7528 10.0812 0 0 0 
81 3 1 -21.6958 8.49831 8.16994 0 0 0 
78 3 1 -22.0278 -1.23708 14.2959 0 0 0 
77 2 1 -20.0046 -1.50098 11.0504 0 0 0 
88 1 1 -19.2143 11.3422 17.1086 0 0 0 
91 1 1 -20.8153 13.6001 19.8598 0 0 0 
94 1 1 -23.5296 14.9602 22.3676 0 0 0 
93 3 1 -16.0225 14.5094 24.8928 0 0 0 
90 3 1 -14.0838 17.1213 18.6356 0 0 0 
89 2 1 -16.8194 14.5379 17.8414 0 0 0 
92 2 1 -18.6615 15.4189 22.7902 0 0 0 
99 3 1 -31.3098 14.4054 29.1448 0 0 0 
95 2 1 -27.1389 15.8038 21.5176 0 0 0 
96 3 1 -30.5259 15.1228 20.7304 0 0 0 
102 3 1 -18.7916 22.3825 30.3722 0 0 0 
98 2 1 -28.9252 16.4816 26.899 0 0 0 
104 2 1 -26.1231 22.1284 33.9697 0 0 0 
97 1 1 -25.0369 16.515 25.5185 0 0 0 
100 1 1 -24.5926 17.9619 29.1329 0 0 0 
101 2 1 -21.0328 19.598 30.0634 0 0 0 
103 1 1 -23.6226 19.1313 32.6796 0 0 0 
105 3 1 -27.2662 25.5945 34.8249 0 0 0 
110 2 1 -24.7183 22.3449 41.5737 0 0 0 
109 1 1 -21.6729 20.7555 39.7819 0 0 0 
112 1 1 -20.1342 21.642 43.2251 0 0 0 
107 2 1 -19.1783 18.3649 37.1407 0 0 0 
108 3 1 -15.7546 17.0265 35.7079 0 0 0 
106 1 1 -22.3348 19.7875 36.1395 0 0 0 
111 3 1 -27.8798 22.4168 40.149 0 0 0 
113 2 1 -17.4129 19.6689 45.5508 0 0 0 
114 3 1 -15.9771 17.2662 47.8217 0 0 0 
120 3 1 -18.4839 32.3599 49.5803 0 0 0 
117 3 1 -23.2482 29.8267 44.8464 0 0 0 
116 2 1 -22.4991 26.7856 46.7353 0 0 0 
119 2 1 -17.8618 28.973 49.8834 0 0 0 
115 1 1 -20.0248 23.504 46.5606 0 0 0 
121 1 1 -18.1445 25.6737 53.6177 0 0 0 
118 1 1 -18.9303 25.0162 49.9093 0 0 0 
123 3 1 -19.4705 18.5228 56.2794 0 0 0 
122 2 1 -19.1824 22.2625 55.7679 0 0 0 
124 1 1 -17.0247 26.9557 57.0943 0 0 0 
125 2 1 -19.367 29.6986 58.7824 0 0 0 
126 3 1 -22.1198 31.9156 59.4837 0 0 0 
ITEM: TIMESTEP
200000
ITEM: NUMBER OF ATOMS
126
ITEM: BOX BOUNDS pp pp pp
-156.421 156.421
-156.421 156.421
-156.421 156.421
ITEM: ATOMS id type mol x y z ix iy iz 
6 3 1 48.4549 -21.8957 -41.3194 0 0 0 
3 3 1 58.248 -20.5093 -33.5823 0 0 0 
18 3 1 40.9486 -12.037 -24.965 0 0 0 
9 3 1 53.1006 -24.124 -26.2549 0 0 0 
21 3 1 41.6239 -25.6352 -18.8864 0 0 0 
17 2 1 43.1072 -14.7883 -24.8875 0 0 0 
12 3 1 43.8101 -17.0295 -34.6468 0 0 0 
11 2 1 45.1573 -19.9827 -32.9915 0 0 0 
10 1 1 48.6039 -21.4175 -31.5488 0 0 0 
8 2 1 51.9825 -24.2464 -29.8646 0 0 0 
7 1 1 51.4558 -22.9027 -33.7859 0 0 0 
5 2 1 51.2276 -22.0447 -38.6283 0 0 0 
13 1 1 46.5512 -20.3445 -28.4639 0 0 0 
4 1 1 53.7488 -24.283 -36.4825 0 0 0 
2 2 1 57.9262 -23.1031 -36.1698 0 0 0 
1 1 1 56.8969 -26.5542 -37.4911 0 0 0 
27 3 1 33.7955 -25.3486 -15.0254 0 0 0 
26 2 1 33.7361 -22.7691 -17.7007 0 0 0 
25 1 1 35.5911 -19.4629 -18.0142 0 0 0 
28 1 1 33.1164 -18.6167 -15.373 0 0 0 
20 2 1 41.2287 -22.2575 -20.6669 0 0 0 
23 2 1 37.5417 -14.843 -19.4382 0 0 0 
22 1 1 38.5384 -18.7557 -20.4264 0 0 0 
19 1 1 41.5614 -18.8018 -22.8165 0 0 0 
16 1 1 44.1725 -18.7161 -25.7798 0 0 0 
14 2 1 47.9149 -20.5325 -24.664 0 0 0 
15 3 1 47.3308 -19.083 -21.2581 0 0 0 
33 3 1 24.8809 -23.2156 -11.9241 0 0 0 
39 3 1 20.0651 -21.6156 -9.08056 0 0 0 
38 2 1 21.7806 -18.4005 -8.33156 0 0 0 
40 1 1 22.8181 -15.5446 -4.5643 0 0 0 
37 1 1 25.2875 -16.4578 -7.4184 0 0 0 
32 2 1 27.347 -20.5294 -12.7021 0 0 0 
31 1 1 30.3041 -18.4277 -12.7821 0 0 0 
29 2 1 32.994 -14.5531 -14.8175 0 0 0 
30 3 1 33.591 -10.9571 -14.0438 0 0 0 
34 1 1 28.2544 -17.073 -9.92205 0 0 0 
35 2 1 29.2829 -13.5398 -8.07487 0 0 0 
24 3 1 38.0134 -11.0336 -18.8516 0 0 0 
36 3 1 32.2097 -11.6716 -7.44839 0 0 0 
42 3 1 16.1019 -18.686 -6.28869 0 0 0 
41 2 1 18.8514 -16.6817 -4.62845 0 0 0 
43 1 1 21.0465 -14.3401 -1.11119 0 0 0 
45 3 1 25.0715 -17.3686 4.58231 0 0 0 
44 2 1 22.6106 -15.3812 2.31052 0 0 0 
51 3 1 13.3157 -4.29364 -1.53953 0 0 0 
54 3 1 7.75344 -3.94423 1.91814 0 0 0 
49 1 1 15.742 -10.202 2.35433 0 0 0 
52 1 1 13.1617 -8.48943 4.67314 0 0 0 
53 2 1 10.5887 -5.53315 3.07986 0 0 0 
50 2 1 14.1543 -6.93594 0.94983 0 0 0 
55 1 1 11.1428 -7.16394 7.6518 0 0 0 
47 2 1 18.2096 -14.1788 4.87342 0 0 0 
46 1 1 18.3946 -12.6882 1.19783 0 0 0 
60 3 1 2.98712 -4.16769 3.95694 0 0 0 
59 2 1 5.38269 -3.36192 6.90381 0 0 0 
99 3 1 -32.2516 24.3408 15.9766 0 0 0 
56 2 1 12.0706 -6.86489 11.6981 0 0 0 
57 3 1 11.9026 -7.63768 15.1087 0 0 0 
48 3 1 17.119 -16.2412 7.72189 0 0 0 
72 3 1 -10.0889 -2.14238 15.8376 0 0 0 
71 2 1 -7.19185 0.36851 15.5844 0 0 0 
69 3 1 -5.25524 -3.46708 19.6029 0 0 0 
68 2 1 -3.47639 -2.46607 16.7306 0 0 0 
67 1 1 -0.935021 -0.708374 14.0699 0 0 0 
64 1 1 2.66241 -1.64172 12.9676 0 0 0 
65 2 1 1.89378 1.66848 10.8329 0 0 0 
70 1 1 -4.31887 1.18422 13.8605 0 0 0 
58 1 1 8.15879 -5.1747 8.98121 0 0 0 
61 1 1 5.86611 -3.55983 11.5966 0 0 0 
62 2 1 6.82589 -3.37409 15.4526 0 0 0 
102 3 1 -36.1035 25.1182 3.05766 0 0 0 
101 2 1 -36.315 22.6707 6.08707 0 0 0 
105 3 1 -42.2503 25.9609 4.79557 0 0 0 
96 3 1 -30.4417 17.1179 2.82336 0 0 0 
84 3 1 -22.7342 8.27441 11.4877 0 0 0 
78 3 1 -15.8139 4.23774 13.6833 0 0 0 
83 2 1 -19.6445 9.62687 10.6017 0 0 0 
77 2 1 -13.152 4.12927 10.9597 0 0 0 
73 1 1 -6.80063 3.86741 12.8765 0 0 0 
76 1 1 -9.91303 6.08399 12.0632 0 0 0 
79 1 1 -12.6621 8.70066 11.5069 0 0 0 
74 2 1 -5.50945 6.95252 10.4405 0 0 0 
75 3 1 -4.3611 8.7723 7.51172 0 0 0 
120 3 1 -58.2341 16.49 11.8951 0 0 0 
108 3 1 -47.0774 22.7974 4.49465 0 0 0 
107 2 1 -45.3792 20.7357 7.08111 0 0 0 
110 2 1 -49.5388 20.5616 9.55391 0 0 0 
111 3 1 -51.0913 18.3803 7.33669 0 0 0 
109 1 1 -46.6478 22.3578 11.4724 0 0 0 
104 2 1 -41.251 24.1335 7.84594 0 0 0 
103 1 1 -39.1773 21.2464 10.0654 0 0 0 
100 1 1 -35.3929 21.3108 9.62445 0 0 0 
106 1 1 -42.9586 21.5699 10.4209 0 0 0 
95 2 1 -29.574 17.3205 6.20276 0 0 0 
94 1 1 -28.2021 18.753 9.70326 0 0 0 
92 2 1 -25.558 21.761 12.7048 0 0 0 
97 1 1 -31.6519 20.3783 10.1422 0 0 0 
98 2 1 -32.571 22.1498 13.256 0 0 0 
85 1 1 -17.871 14.0486 10.7014 0 0 0 
88 1 1 -21.1874 15.9952 10.5095 0 0 0 
91 1 1 -24.4751 18.3146 10.7443 0 0 0 
86 2 1 -17.0226 17.8849 9.2172 0 0 0 
89 2 1 -21.1534 17.9419 7.06416 0 0 0 
87 3 1 -15.6174 20.2749 7.02039 0 0 0 
82 1 1 -15.8305 11.0206 11.1361 0 0 0 
80 2 1 -11.5449 12.1995 13.1724 0 0 0 
81 3 1 -8.99626 14.9935 12.5938 0 0 0 
93 3 1 -27.2475 24.9117 13.9713 0 0 0 
90 3 1 -20.7189 18.4672 3.43948 0 0 0 
66 3 1 0.200501 3.76375 8.30086 0 0 0 
63 3 1 7.82335 -5.50457 18.0229 0 0 0 
126 3 1 -68.8779 21.1221 13.9051 0 0 0 
119 2 1 -58.4249 19.3069 14.2906 0 0 0 
118 1 1 -56.6481 22.5532 16.1833 0 0 0 
125 2 1 -66.6007 20.6229 16.6069 0 0 0 
124 1 1 -63.8329 21.445 18.6586 0 0 0 
121 1 1 -60.0315 22.1661 17.7364 0 0 0 
112 1 1 -49.6273 23.5455 13.7769 0 0 0 
115 1 1 -53.1106 23.8501 15.5027 0 0 0 
113 2 1 -49.1369 26.3102 16.6548 0 0 0 
116 2 1 -54.7923 26.3913 18.1716 0 0 0 
114 3 1 -48.3744 29.7897 18.1838 0 0 0 
122 2 1 -59.8051 24.2404 21.3337 0 0 0 
123 3 1 -60.9226 26.083 24.4782 0 0 0 
117 3 1 -56.2974 29.529 18.3796 0 0 0 
ITEM: TIMESTEP
300000
ITEM: NUMBER OF ATOMS
126
ITEM: BOX BOUNDS pp pp pp
-156.421 156.421
-156.421 156.421
-156.421 156.421
ITEM: ATOMS id type mol x y z ix iy iz 
90 3 1 -27.9257 17.103 -5.93286 0 0 0 
98 2 1 -39.3259 11.4439 -15.0404 0 0 0 
95 2 1 -35.1224 13.785 -12.0014 0 0 0 
96 3 1 -35.0163 16.7218 -14.1967 0 0 0 
99 3 1 -39.9549 10.6144 -18.5012 0 0 0 
72 3 1 -9.80171 -1.67767 -5.34635 0 0 0 
71 2 1 -8.05057 1.04419 -3.34859 0 0 0 
65 2 1 -2.76602 1.12785 0.649612 0 0 0 
66 3 1 -6.07015 0.213644 1.61417 0 0 0 
117 3 1 -65.4273 6.20874 -9.31282 0 0 0 
113 2 1 -58.1845 8.75581 -11.5698 0 0 0 
112 1 1 -56.6103 10.1138 -8.09421 0 0 0 
114 3 1 -58.9967 6.54179 -14.5102 0 0 0 
116 2 1 -63.2476 8.87683 -8.35467 0 0 0 
118 1 1 -63.4509 13.7472 -8.85089 0 0 0 
115 1 1 -60.1964 11.5294 -8.48192 0 0 0 
109 1 1 -52.9699 9.04186 -7.09701 0 0 0 
106 1 1 -49.444 8.69899 -8.714 0 0 0 
104 2 1 -45.0845 6.98971 -5.99281 0 0 0 
107 2 1 -52.0954 8.82733 -11.8392 0 0 0 
108 3 1 -53.7733 10.2364 -14.8259 0 0 0 
101 2 1 -45.0224 11.3585 -13.6806 0 0 0 
103 1 1 -45.6523 9.08531 -9.47147 0 0 0 
97 1 1 -38.3332 10.4018 -11.5474 0 0 0 
100 1 1 -42.1482 10.0361 -11.1043 0 0 0 
89 2 1 -28.133 13.6952 -6.83033 0 0 0 
94 1 1 -34.837 10.3455 -9.80461 0 0 0 
88 1 1 -27.9801 9.78066 -6.3772 0 0 0 
91 1 1 -31.7513 10.0566 -7.48652 0 0 0 
86 2 1 -25.686 6.0754 -8.11436 0 0 0 
92 2 1 -35.0028 10.7486 -5.16483 0 0 0 
81 3 1 -19.4032 14.8954 -7.55405 0 0 0 
85 1 1 -24.2715 8.76538 -5.32448 0 0 0 
82 1 1 -20.5452 8.1676 -4.77831 0 0 0 
79 1 1 -16.6247 8.10159 -4.73519 0 0 0 
80 2 1 -17.544 12.0072 -5.64731 0 0 0 
76 1 1 -13.215 6.63768 -4.08656 0 0 0 
102 3 1 -45.9273 13.7113 -16.5362 0 0 0 
111 3 1 -54.1093 9.51744 0.502609 0 0 0 
110 2 1 -54.2268 8.67003 -3.18373 0 0 0 
9 3 1 60.1091 -24.7308 14.3157 0 0 0 
18 3 1 45.0792 -18.9405 6.29003 0 0 0 
12 3 1 47.428 -26.2129 6.67812 0 0 0 
17 2 1 48.7682 -19.1465 7.01384 0 0 0 
24 3 1 42.4587 -13.5844 3.86063 0 0 0 
30 3 1 36.9527 -11.2698 6.59838 0 0 0 
120 3 1 -69.7205 9.55825 -10.9756 0 0 0 
78 3 1 -15.6078 1.307 -0.589186 0 0 0 
70 1 1 -5.97627 4.40079 -3.38346 0 0 0 
77 2 1 -15.3208 4.43993 -2.29891 0 0 0 
61 1 1 4.42882 2.50035 0.998694 0 0 0 
64 1 1 0.879129 2.91873 -0.403879 0 0 0 
63 3 1 0.17333 0.244765 5.5202 0 0 0 
62 2 1 2.85025 -0.697759 3.06432 0 0 0 
67 1 1 -2.18513 4.13642 -2.39631 0 0 0 
58 1 1 8.21051 3.16592 1.15607 0 0 0 
55 1 1 11.6987 2.26086 2.59676 0 0 0 
56 2 1 9.90532 -1.40207 2.11246 0 0 0 
52 1 1 15.4133 2.105 3.80647 0 0 0 
57 3 1 10.1472 -5.07391 2.13469 0 0 0 
45 3 1 23.8878 -4.23257 2.42652 0 0 0 
53 2 1 14.3839 5.19027 1.5874 0 0 0 
36 3 1 31.9354 -5.46897 2.56956 0 0 0 
44 2 1 24.5845 -2.79144 5.64777 0 0 0 
123 3 1 -63.4221 23.2499 -7.55002 0 0 0 
124 1 1 -69.7626 18.1628 -8.57902 0 0 0 
121 1 1 -66.2934 16.2648 -8.46732 0 0 0 
122 2 1 -65.1965 20.0768 -7.58281 0 0 0 
119 2 1 -66.9216 11.5153 -9.07707 0 0 0 
105 3 1 -44.7776 9.90394 -3.79126 0 0 0 
93 3 1 -36.6781 8.58322 -2.35139 0 0 0 
87 3 1 -27.0193 2.67514 -9.33179 0 0 0 
84 3 1 -22.214 1.08102 -6.13086 0 0 0 
83 2 1 -22.4208 4.56415 -4.85042 0 0 0 
74 2 1 -9.448 9.37867 -6.24829 0 0 0 
75 3 1 -11.1434 12.804 -6.59808 0 0 0 
73 1 1 -9.40677 5.97869 -4.0762 0 0 0 
69 3 1 -1.00007 8.12529 -8.65743 0 0 0 
68 2 1 -1.69165 7.1862 -5.16041 0 0 0 
60 3 1 8.13972 9.22614 -2.56498 0 0 0 
59 2 1 7.3804 6.05202 -0.871355 0 0 0 
54 3 1 15.1284 7.1768 -1.24614 0 0 0 
126 3 1 -76.1223 15.0099 -11.9059 0 0 0 
125 2 1 -73.2243 16.5494 -10.0564 0 0 0 
3 3 1 63.2058 -30.9006 9.65252 0 0 0 
2 2 1 61.5827 -33.6814 8.19145 0 0 0 
8 2 1 58.9182 -27.0262 11.7517 0 0 0 
10 1 1 53.9307 -26.4265 10.17 0 0 0 
7 1 1 56.126 -29.5534 10.4246 0 0 0 
4 1 1 56.7333 -33.2678 9.4633 0 0 0 
6 3 1 51.019 -34.0148 14.6899 0 0 0 
11 2 1 49.9839 -26.5213 9.18261 0 0 0 
14 2 1 54.8026 -20.4294 12.9043 0 0 0 
16 1 1 52.1143 -19.0596 9.3214 0 0 0 
19 1 1 51.0651 -15.4356 9.30981 0 0 0 
13 1 1 53.2044 -22.7133 10.2107 0 0 0 
15 3 1 56.6558 -19.2118 15.5961 0 0 0 
23 2 1 44.8685 -12.8313 6.38915 0 0 0 
29 2 1 40.18 -9.58186 6.16315 0 0 0 
28 1 1 42.93 -7.62428 8.19669 0 0 0 
25 1 1 46.3708 -9.3859 8.27549 0 0 0 
26 2 1 48.137 -5.87847 8.80578 0 0 0 
22 1 1 48.2822 -12.6312 8.5075 0 0 0 
20 2 1 52.2407 -12.0743 11.3496 0 0 0 
27 3 1 49.9193 -3.01937 8.07224 0 0 0 
51 3 1 16.0005 -5.80292 5.07066 0 0 0 
50 2 1 17.3104 -2.52062 4.58508 0 0 0 
49 1 1 18.8569 1.24891 5.10024 0 0 0 
46 1 1 22.4358 1.25379 6.62826 0 0 0 
47 2 1 20.9614 4.70054 7.93993 0 0 0 
48 3 1 20.9393 8.57128 7.85739 0 0 0 
35 2 1 34.1896 -4.63325 5.67982 0 0 0 
43 1 1 25.9988 0.363613 7.53041 0 0 0 
41 2 1 28.9702 3.00472 10.3732 0 0 0 
37 1 1 33.4137 -1.3946 8.9974 0 0 0 
40 1 1 29.7304 -0.0590652 8.73498 0 0 0 
38 2 1 33.8758 1.52997 11.7333 0 0 0 
31 1 1 40.2065 -4.89027 8.30227 0 0 0 
34 1 1 36.6418 -3.3749 8.21554 0 0 0 
32 2 1 40.1361 -0.962414 9.32013 0 0 0 
33 3 1 39.0809 2.33208 7.58028 0 0 0 
39 3 1 35.5946 4.38733 13.5039 0 0 0 
42 3 1 26.1467 4.91095 9.7953 0 0 0 
1 1 1 58.6205 -36.4703 8.08192 0 0 0 
5 2 1 53.2376 -33.0692 11.6123 0 0 0 
21 3 1 53.0851 -10.5102 14.6452 0 0 0 
ITEM: TIMESTEP
400000
ITEM: NUMBER OF ATOMS
126
ITEM: BOX BOUNDS pp pp pp
-156.421 156.421
-156.421 156.421
-156.421 156.421
ITEM: ATOMS id type mol x y z ix iy iz 
124 1 1 -62.4719 14.3465 -36.7941 0 0 0 
117 3 1 -56.3606 5.77933 -35.7966 0 0 0 
116 2 1 -54.7157 8.6957 -33.8714 0 0 0 
111 3 1 -50.3659 6.4967 -33.7542 0 0 0 
126 3 1 -65.6799 9.28245 -41.2102 0 0 0 
122 2 1 -59.8649 10.7381 -38.1385 0 0 0 
125 2 1 -64.5287 12.1677 -39.6214 0 0 0 
121 1 1 -59.1591 13.0024 -35.4508 0 0 0 
120 3 1 -59.0199 20.2231 -33.3487 0 0 0 
119 2 1 -58.3416 16.5539 -32.4845 0 0 0 
114 3 1 -53.1946 15.6691 -24.6694 0 0 0 
113 2 1 -51.4323 13.9506 -27.6213 0 0 0 
118 1 1 -56.2226 13.0937 -32.904 0 0 0 
112 1 1 -49.7256 10.8616 -29.6023 0 0 0 
115 1 1 -53.055 11.5721 -31.4727 0 0 0 
110 2 1 -47.5958 7.58353 -31.8715 0 0 0 
109 1 1 -46.1976 9.38125 -28.5322 0 0 0 
104 2 1 -40.0491 6.91179 -29.4971 0 0 0 
105 3 1 -40.5655 6.94043 -33.2548 0 0 0 
106 1 1 -42.8726 9.1715 -26.6145 0 0 0 
99 3 1 -31.1536 8.08669 -29.711 0 0 0 
123 3 1 -59.5719 8.85461 -41.3841 0 0 0 
108 3 1 -46.2633 12.6659 -20.7855 0 0 0 
107 2 1 -45.5242 10.5684 -23.9021 0 0 0 
101 2 1 -39.8676 8.62256 -21.3293 0 0 0 
103 1 1 -39.2301 8.10261 -25.7192 0 0 0 
102 3 1 -43.2961 7.88886 -20.1222 0 0 0 
100 1 1 -36.237 8.3746 -23.3154 0 0 0 
98 2 1 -32.4192 8.47604 -26.0784 0 0 0 
97 1 1 -32.6852 9.07574 -22.1421 0 0 0 
94 1 1 -29.4951 9.43954 -19.8758 0 0 0 
95 2 1 -27.9307 8.24741 -23.2396 0 0 0 
96 3 1 -26.6471 8.39812 -26.5784 0 0 0 
84 3 1 -16.6284 17.0224 -10.6065 0 0 0 
93 3 1 -31.4635 5.07106 -12.8052 0 0 0 
92 2 1 -29.9532 6.96359 -15.5845 0 0 0 
91 1 1 -27.0424 9.47688 -16.9124 0 0 0 
89 2 1 -25.8943 6.66289 -13.1045 0 0 0 
90 3 1 -26.2942 3.1002 -13.3187 0 0 0 
88 1 1 -24.2229 10.0303 -14.4751 0 0 0 
86 2 1 -22.2883 14.0564 -13.87 0 0 0 
85 1 1 -21.1271 10.6871 -12.3263 0 0 0 
82 1 1 -17.8864 9.81344 -10.1287 0 0 0 
83 2 1 -17.9862 13.6392 -10.2389 0 0 0 
79 1 1 -14.9112 8.20606 -8.36195 0 0 0 
78 3 1 -10.7265 14.4161 -3.89868 0 0 0 
77 2 1 -12.8887 11.3473 -4.09954 0 0 0 
75 3 1 -4.94451 10.5828 -7.80219 0 0 0 
72 3 1 -13.9092 2.05004 -0.00875339 0 0 0 
71 2 1 -10.6804 3.387 -0.651943 0 0 0 
67 1 1 -3.58732 2.44614 0.0616219 0 0 0 
64 1 1 -1.20093 0.899455 2.75155 0 0 0 
61 1 1 0.285909 -0.777766 5.91965 0 0 0 
62 2 1 -3.49917 -2.40242 5.40436 0 0 0 
59 2 1 3.11109 1.87334 7.47815 0 0 0 
60 3 1 4.02619 4.56467 5.39493 0 0 0 
58 1 1 2.96005 -1.86768 8.46761 0 0 0 
80 2 1 -15.5229 5.83921 -11.56 0 0 0 
87 3 1 -23.3257 17.7623 -13.902 0 0 0 
81 3 1 -13.3734 4.19084 -14.2996 0 0 0 
74 2 1 -7.28134 8.01554 -6.93407 0 0 0 
76 1 1 -12.331 7.54956 -5.63867 0 0 0 
73 1 1 -9.19487 6.04798 -3.90907 0 0 0 
70 1 1 -6.77986 4.02587 -1.61227 0 0 0 
69 3 1 -1.92662 1.38154 -7.38919 0 0 0 
65 2 1 1.49041 2.45801 0.674064 0 0 0 
66 3 1 5.13276 3.6795 0.536971 0 0 0 
68 2 1 -3.01566 2.54119 -3.97895 0 0 0 
57 3 1 2.21507 -9.28173 6.18145 0 0 0 
54 3 1 5.82161 -12.1618 7.96043 0 0 0 
56 2 1 2.80282 -6.51915 8.64824 0 0 0 
53 2 1 5.93908 -9.45745 10.6575 0 0 0 
49 1 1 11.4451 -7.22164 13.6848 0 0 0 
47 2 1 13.1035 -11.7036 12.8771 0 0 0 
55 1 1 5.32185 -4.0243 10.6668 0 0 0 
52 1 1 8.30481 -6.27406 11.9407 0 0 0 
50 2 1 10.3662 -3.40445 14.6535 0 0 0 
51 3 1 8.00823 -1.11746 16.4024 0 0 0 
63 3 1 -6.18381 -4.76098 4.87473 0 0 0 
24 3 1 40.3791 -13.1451 29.7907 0 0 0 
15 3 1 47.8024 -14.9413 17.6831 0 0 0 
14 2 1 49.3583 -15.1966 21.2655 0 0 0 
10 1 1 56.1891 -15.8209 22.916 0 0 0 
48 3 1 11.3941 -14.5888 11.2929 0 0 0 
46 1 1 14.643 -8.66803 15.1399 0 0 0 
45 3 1 14.387 -15.223 18.3731 0 0 0 
44 2 1 16.7222 -12.6758 17.0961 0 0 0 
43 1 1 18.1713 -8.96219 16.7823 0 0 0 
40 1 1 21.5975 -7.55519 18.2009 0 0 0 
30 3 1 34.5672 -6.78391 31.2571 0 0 0 
31 1 1 31.6038 -6.47038 23.8713 0 0 0 
28 1 1 35.4331 -6.99312 24.2422 0 0 0 
29 2 1 34.2902 -7.06235 27.6192 0 0 0 
23 2 1 40.8527 -11.4461 26.6737 0 0 0 
21 3 1 47.2308 -2.65003 25.2001 0 0 0 
26 2 1 38.4229 -6.14299 20.0347 0 0 0 
25 1 1 39.2414 -7.64453 23.7995 0 0 0 
22 1 1 42.8812 -8.93061 24.3483 0 0 0 
20 2 1 46.4585 -5.74399 23.7585 0 0 0 
19 1 1 46.5988 -9.77332 24.2181 0 0 0 
18 3 1 50.6929 -5.05838 28.3047 0 0 0 
16 1 1 50.0361 -11.455 24.0542 0 0 0 
17 2 1 51.2333 -8.27455 26.192 0 0 0 
13 1 1 52.8027 -14.0833 23.2613 0 0 0 
6 3 1 59.51 -23.5781 26.682 0 0 0 
5 2 1 61.0739 -20.6439 25.5708 0 0 0 
4 1 1 63.5632 -18.2994 23.597 0 0 0 
1 1 1 67.2831 -17.9571 22.5769 0 0 0 
7 1 1 59.9624 -16.6855 23.1812 0 0 0 
42 3 1 19.3631 -1.03093 15.0138 0 0 0 
41 2 1 20.1792 -4.76202 15.5492 0 0 0 
37 1 1 24.5948 -6.63881 20.5303 0 0 0 
38 2 1 22.1289 -3.36213 20.2935 0 0 0 
39 3 1 20.2127 -0.171302 21.0767 0 0 0 
35 2 1 25.0325 -4.81116 24.9143 0 0 0 
36 3 1 22.9577 -1.75541 25.9883 0 0 0 
32 2 1 28.8688 -7.08009 26.6438 0 0 0 
34 1 1 27.9315 -6.23173 22.445 0 0 0 
33 3 1 26.9465 -9.07509 29.0267 0 0 0 
27 3 1 38.6497 -7.53342 16.87 0 0 0 
12 3 1 52.314 -18.4263 17.5115 0 0 0 
11 2 1 53.7278 -17.8289 20.6077 0 0 0 
3 3 1 64.5077 -11.7193 19.7183 0 0 0 
9 3 1 58.5201 -11.277 18.3079 0 0 0 
8 2 1 59.8131 -13.5013 21.1214 0 0 0 
2 2 1 65.7868 -14.37 21.6608 0 0 0 
ITEM: TIMESTEP
500000
ITEM: NUMBER OF ATOMS
126
ITEM: BOX BOUNDS pp pp pp
-156.421 156.421
-156.421 156.421
-156.421 156.421
ITEM: ATOMS id type mol x y z ix iy iz 
75 3 1 1.88906 -4.6435 -26.719 0 0 0 
93 3 1 -20.5409 8.37655 -27.3654 0 0 0 
84 3 1 -13.486 -5.83399 -20.4581 0 0 0 
81 3 1 -7.46836 -8.58814 -24.242 0 0 0 
80 2 1 -5.4362 -5.52154 -23.8445 0 0 0 
72 3 1 8.92403 -6.71833 -24.3927 0 0 0 
87 3 1 -16.4488 -1.44857 -18.0951 0 0 0 
86 2 1 -14.0619 -0.0413825 -20.0692 0 0 0 
83 2 1 -10.5779 -3.88993 -21.8552 0 0 0 
82 1 1 -7.60591 -1.21798 -21.7512 0 0 0 
88 1 1 -13.1397 4.20862 -21.5405 0 0 0 
85 1 1 -10.532 1.2773 -21.7679 0 0 0 
79 1 1 -3.97839 -2.77468 -21.1523 0 0 0 
74 2 1 3.31941 -4.27912 -23.2129 0 0 0 
76 1 1 -0.257737 -2.8779 -19.9616 0 0 0 
73 1 1 3.57613 -2.68432 -19.566 0 0 0 
77 2 1 -2.14982 -2.50933 -16.2567 0 0 0 
71 2 1 7.45987 -4.48389 -21.7903 0 0 0 
70 1 1 7.18835 -2.28755 -18.3193 0 0 0 
67 1 1 9.57483 -0.901328 -15.4624 0 0 0 
68 2 1 11.0606 -0.966232 -19.2003 0 0 0 
69 3 1 12.8667 -2.49926 -22.1751 0 0 0 
96 3 1 -25.7648 8.36602 -21.6754 0 0 0 
92 2 1 -18.771 6.99465 -24.7322 0 0 0 
94 1 1 -18.7897 9.38752 -20.2863 0 0 0 
91 1 1 -16.0146 6.85153 -21.4998 0 0 0 
95 2 1 -22.5515 9.62459 -21.6188 0 0 0 
97 1 1 -19.8355 12.3126 -18.1253 0 0 0 
90 3 1 -8.19826 10.0041 -21.7446 0 0 0 
89 2 1 -11.0119 7.71814 -20.9712 0 0 0 
99 3 1 -20.2092 19.1213 -21.4222 0 0 0 
98 2 1 -21.0872 15.7088 -19.8123 0 0 0 
78 3 1 -3.61906 -1.06921 -13.1196 0 0 0 
66 3 1 4.32824 -2.59145 -10.619 0 0 0 
65 2 1 7.56829 -1.66447 -11.3999 0 0 0 
64 1 1 10.8343 0.311964 -11.9583 0 0 0 
62 2 1 9.42857 -0.899066 -8.04685 0 0 0 
63 3 1 7.03369 -3.26084 -6.45447 0 0 0 
61 1 1 12.2933 1.71425 -8.74331 0 0 0 
58 1 1 14.6282 2.78245 -5.92572 0 0 0 
59 2 1 16.0459 3.33205 -9.64044 0 0 0 
100 1 1 -20.3114 14.2528 -14.701 0 0 0 
101 2 1 -16.9693 14.546 -12.2989 0 0 0 
60 3 1 16.793 6.21999 -12.181 0 0 0 
54 3 1 20.1202 6.38724 -7.91114 0 0 0 
103 1 1 -21.4118 15.9508 -11.4042 0 0 0 
106 1 1 -23.1185 16.2436 -7.90331 0 0 0 
104 2 1 -19.1524 19.0256 -9.96026 0 0 0 
105 3 1 -18.8639 22.2891 -11.4622 0 0 0 
107 2 1 -23.5385 19.9681 -6.33206 0 0 0 
102 3 1 -14.1797 15.5879 -10.3644 0 0 0 
57 3 1 12.3921 -1.76295 -1.80091 0 0 0 
56 2 1 13.8337 1.63386 -1.42888 0 0 0 
55 1 1 16.3915 4.26542 -2.87721 0 0 0 
113 2 1 -28.6131 13.1126 1.33059 0 0 0 
114 3 1 -29.5117 11.5134 4.38431 0 0 0 
110 2 1 -24.1751 12.1122 -2.74585 0 0 0 
111 3 1 -23.77 9.03041 -1.10347 0 0 0 
53 2 1 19.6856 7.18382 -4.5213 0 0 0 
52 1 1 18.7308 6.28902 -0.557662 0 0 0 
51 3 1 22.117 13.657 -2.13297 0 0 0 
50 2 1 20.8857 10.6586 -0.702147 0 0 0 
49 1 1 20.4281 8.02939 2.43113 0 0 0 
47 2 1 23.039 11.8171 4.5586 0 0 0 
48 3 1 24.3617 15.0205 3.64997 0 0 0 
108 3 1 -26.7026 20.0981 -4.5649 0 0 0 
116 2 1 -27.6945 20.8827 4.32399 0 0 0 
115 1 1 -27.4497 17.1358 2.65285 0 0 0 
112 1 1 -26.4833 15.9098 -0.860407 0 0 0 
109 1 1 -24.9095 15.6619 -4.49677 0 0 0 
20 2 1 11.9971 -16.7198 14.7852 0 0 0 
24 3 1 7.29132 -15.753 7.796 0 0 0 
21 3 1 15.4807 -17.2696 13.7714 0 0 0 
29 2 1 10.4249 -5.06788 9.82733 0 0 0 
25 1 1 10.4413 -10.1832 14.6872 0 0 0 
28 1 1 11.9927 -6.76824 13.2395 0 0 0 
23 2 1 8.544 -13.618 10.7276 0 0 0 
22 1 1 8.83502 -13.7936 14.8537 0 0 0 
30 3 1 11.4723 -3.39941 6.82325 0 0 0 
31 1 1 14.0397 -3.60247 12.8139 0 0 0 
33 3 1 12.5336 1.76781 7.57706 0 0 0 
32 2 1 13.6079 -0.496442 10.0907 0 0 0 
34 1 1 16.7131 -1.22194 13.8343 0 0 0 
35 2 1 15.363 1.9324 13.1904 0 0 0 
37 1 1 18.9264 1.90617 14.0305 0 0 0 
36 3 1 15.5027 5.03157 11.2173 0 0 0 
119 2 1 -27.2138 13.7713 8.10536 0 0 0 
120 3 1 -28.1523 10.3578 9.62171 0 0 0 
46 1 1 21.0855 8.60468 6.16021 0 0 0 
43 1 1 20.8498 7.51212 9.66245 0 0 0 
40 1 1 20.4088 5.28068 12.8015 0 0 0 
45 3 1 24.2693 13.2832 12.5178 0 0 0 
44 2 1 22.9819 10.8541 10.1759 0 0 0 
123 3 1 -35.823 22.5101 11.1968 0 0 0 
117 3 1 -26.8391 23.4111 6.6146 0 0 0 
118 1 1 -28.6238 16.8358 6.41642 0 0 0 
124 1 1 -32.6425 16.8061 12.9243 0 0 0 
121 1 1 -30.5905 17.287 9.76981 0 0 0 
122 2 1 -33.0223 20.3877 10.7908 0 0 0 
1 1 1 14.0671 -38.2154 22.0452 0 0 0 
3 3 1 21.1217 -39.3562 23.9337 0 0 0 
2 2 1 17.7325 -38.1217 23.8493 0 0 0 
11 2 1 7.16178 -25.5895 23.151 0 0 0 
10 1 1 10.2918 -27.6151 21.4269 0 0 0 
7 1 1 11.738 -31.0155 22.7035 0 0 0 
4 1 1 13.3815 -34.5603 23.3041 0 0 0 