ITEM: TIMESTEP
0
ITEM: NUMBER OF ATOMS
144
ITEM: BOX BOUNDS pp pp pp
-163.541 163.541
-163.541 163.541
-163.541 163.541
ITEM: ATOMS id type mol x y z ix iy iz 
1 1 1 -13.8136 -16.8036 -83.1996 0 0 0 
3 3 1 -20.6492 -17.568 -80.0861 0 0 0 
2 2 1 -17.2031 -16.8621 -81.3283 0 0 0 
4 1 1 -13.228 -16.0684 -79.6812 0 0 0 
7 1 1 -12.6425 -15.3333 -76.1628 0 0 0 
8 2 1 -16.032 -15.3918 -74.2915 0 0 0 
9 3 1 -19.4781 -16.0977 -73.0493 0 0 0 
10 1 1 -12.057 -14.5981 -72.6444 0 0 0 
5 2 1 -9.70059 -17.0076 -80.5789 0 0 0 
6 3 1 -6.11337 -17.9785 -79.7538 0 0 0 
11 2 1 -8.52953 -15.5373 -73.5421 0 0 0 
12 3 1 -4.94231 -16.5082 -72.7169 0 0 0 
13 1 1 -11.4715 -13.8629 -69.126 0 0 0 
14 2 1 -14.861 -13.9214 -67.2547 0 0 0 
15 3 1 -18.3071 -14.6273 -66.0125 0 0 0 
16 1 1 -10.8859 -13.1278 -65.6076 0 0 0 
19 1 1 -10.3004 -12.3926 -62.0892 0 0 0 
17 2 1 -7.35847 -14.067 -66.5053 0 0 0 
18 3 1 -3.77125 -15.0378 -65.6801 0 0 0 
20 2 1 -13.6899 -12.4511 -60.2179 0 0 0 
21 3 1 -17.136 -13.157 -58.9757 0 0 0 
26 2 1 -12.5189 -10.9808 -53.1811 0 0 0 
27 3 1 -15.9649 -11.6867 -51.9389 0 0 0 
22 1 1 -9.71487 -11.6575 -58.5708 0 0 0 
23 2 1 -6.18741 -12.5966 -59.4685 0 0 0 
24 3 1 -2.60019 -13.5675 -58.6433 0 0 0 
25 1 1 -9.12934 -10.9223 -55.0524 0 0 0 
29 2 1 -5.01635 -11.1263 -52.4317 0 0 0 
30 3 1 -1.42913 -12.0972 -51.6065 0 0 0 
28 1 1 -8.54381 -10.1871 -51.534 0 0 0 
36 3 1 -0.258066 -10.6268 -44.5697 0 0 0 
32 2 1 -11.3478 -9.51044 -46.1443 0 0 0 
33 3 1 -14.7939 -10.2164 -44.9021 0 0 0 
31 1 1 -7.95828 -9.45196 -48.0156 0 0 0 
34 1 1 -7.37275 -8.7168 -44.4972 0 0 0 
35 2 1 -3.84528 -9.65598 -45.3949 0 0 0 
37 1 1 -6.78722 -7.98163 -40.9788 0 0 0 
39 3 1 -13.6228 -8.74604 -37.8652 0 0 0 
45 3 1 -12.4517 -7.27571 -30.8284 0 0 0 
38 2 1 -10.1767 -8.04012 -39.1075 0 0 0 
40 1 1 -6.20169 -7.24647 -37.4604 0 0 0 
41 2 1 -2.67422 -8.18566 -38.3581 0 0 0 
43 1 1 -5.61616 -6.51131 -33.942 0 0 0 
44 2 1 -9.00567 -6.56979 -32.0707 0 0 0 
47 2 1 -1.50316 -6.71533 -31.3213 0 0 0 
42 3 1 0.912995 -9.15652 -37.5329 0 0 0 
51 3 1 -11.2807 -5.80539 -23.7916 0 0 0 
46 1 1 -5.03063 -5.77614 -30.4236 0 0 0 
49 1 1 -4.4451 -5.04098 -26.9052 0 0 0 
50 2 1 -7.83461 -5.09946 -25.0339 0 0 0 
52 1 1 -3.85956 -4.30582 -23.3868 0 0 0 
53 2 1 -0.332099 -5.245 -24.2845 0 0 0 
48 3 1 2.08406 -7.68619 -30.4962 0 0 0 
54 3 1 3.25512 -6.21586 -23.4593 0 0 0 
55 1 1 -3.27403 -3.57065 -19.8684 0 0 0 
56 2 1 -6.66355 -3.62914 -17.9971 0 0 0 
57 3 1 -10.1096 -4.33506 -16.7548 0 0 0 
58 1 1 -2.6885 -2.83549 -16.35 0 0 0 
61 1 1 -2.10297 -2.10033 -12.8316 0 0 0 
62 2 1 -5.49249 -2.15881 -10.9603 0 0 0 
59 2 1 0.838961 -3.77467 -17.2477 0 0 0 
60 3 1 4.42618 -4.74554 -16.4225 0 0 0 
63 3 1 -8.93856 -2.86473 -9.71804 0 0 0 
64 1 1 -1.51744 -1.36516 -9.31319 0 0 0 
67 1 1 -0.931911 -0.629998 -5.79479 0 0 0 
68 2 1 -4.32143 -0.688482 -3.92353 0 0 0 
69 3 1 -7.7675 -1.3944 -2.68124 0 0 0 
65 2 1 2.01002 -2.30435 -10.2109 0 0 0 
66 3 1 5.59724 -3.27521 -9.38575 0 0 0 
71 2 1 3.18108 -0.83402 -3.17409 0 0 0 
72 3 1 6.7683 -1.80488 -2.34895 0 0 0 
70 1 1 -0.34638 0.105164 -2.27638 0 0 0 
78 3 1 7.93936 -0.334554 4.68786 0 0 0 
74 2 1 -3.15037 0.781844 3.11327 0 0 0 
75 3 1 -6.59644 0.075921 4.35556 0 0 0 
80 2 1 -1.97931 2.25217 10.1501 0 0 0 
73 1 1 0.23915 0.840328 1.24202 0 0 0 
76 1 1 0.82468 1.57549 4.76042 0 0 0 
77 2 1 4.35215 0.636306 3.86271 0 0 0 
79 1 1 1.41021 2.31066 8.27882 0 0 0 
81 3 1 -5.42537 1.54625 11.3924 0 0 0 
86 2 1 -0.808244 3.7225 17.1869 0 0 0 
87 3 1 -4.25431 3.01658 18.4292 0 0 0 
82 1 1 1.99574 3.04582 11.7972 0 0 0 
83 2 1 5.52321 2.10663 10.8995 0 0 0 
84 3 1 9.11042 1.13577 11.7247 0 0 0 
85 1 1 2.58127 3.78098 15.3156 0 0 0 
88 1 1 3.1668 4.51615 18.834 0 0 0 
89 2 1 6.69427 3.57696 17.9363 0 0 0 
90 3 1 10.2815 2.6061 18.7614 0 0 0 
93 3 1 -3.08325 4.4869 25.466 0 0 0 
91 1 1 3.75233 5.25131 22.3524 0 0 0 
92 2 1 0.362816 5.19283 24.2237 0 0 0 
94 1 1 4.33786 5.98647 25.8708 0 0 0 
95 2 1 7.86533 5.04729 24.9731 0 0 0 
97 1 1 4.9234 6.72164 29.3892 0 0 0 
96 3 1 11.4525 4.07643 25.7983 0 0 0 
99 3 1 -1.91219 5.95723 32.5028 0 0 0 
105 3 1 -0.74113 7.42756 39.5396 0 0 0 
98 2 1 1.53388 6.66315 31.2605 0 0 0 
100 1 1 5.50893 7.4568 32.9076 0 0 0 
101 2 1 9.03639 6.51761 32.0099 0 0 0 
103 1 1 6.09446 8.19196 36.426 0 0 0 
104 2 1 2.70494 8.13348 38.2973 0 0 0 
106 1 1 6.67999 8.92713 39.9444 0 0 0 
107 2 1 10.2074 7.98794 39.0467 0 0 0 
102 3 1 12.6236 5.54675 32.8351 0 0 0 
108 3 1 13.7947 7.01708 39.8719 0 0 0 
109 1 1 7.26552 9.66229 43.4628 0 0 0 
110 2 1 3.876 9.60381 45.3341 0 0 0 
111 3 1 0.429931 8.89788 46.5764 0 0 0 
113 2 1 11.3785 9.45827 46.0835 0 0 0 
114 3 1 14.9657 8.48741 46.9087 0 0 0 
112 1 1 7.85105 10.3974 46.9812 0 0 0 
115 1 1 8.43658 11.1326 50.4996 0 0 0 
120 3 1 16.1368 9.95773 53.9455 0 0 0 
116 2 1 5.04706 11.0741 52.3709 0 0 0 
117 3 1 1.60099 10.3682 53.6132 0 0 0 
118 1 1 9.02211 11.8678 54.018 0 0 0 
121 1 1 9.60764 12.6029 57.5364 0 0 0 
122 2 1 6.21812 12.5445 59.4077 0 0 0 
123 3 1 2.77205 11.8385 60.65 0 0 0 
124 1 1 10.1932 13.3381 61.0548 0 0 0 
119 2 1 12.5496 10.9286 53.1203 0 0 0 
125 2 1 13.7206 12.3989 60.1571 0 0 0 
126 3 1 17.3078 11.4281 60.9823 0 0 0 
128 2 1 7.38919 14.0148 66.4445 0 0 0 
129 3 1 3.94312 13.3089 67.6868 0 0 0 
127 1 1 10.7787 14.0733 64.5732 0 0 0 
130 1 1 11.3642 14.8084 68.0916 0 0 0 
131 2 1 14.8917 13.8692 67.1939 0 0 0 
132 3 1 18.4789 12.8984 68.0191 0 0 0 
134 2 1 8.56025 15.4851 73.4813 0 0 0 
135 3 1 5.11418 14.7792 74.7236 0 0 0 
140 2 1 9.73131 16.9554 80.5181 0 0 0 
141 3 1 6.28524 16.2495 81.7604 0 0 0 
133 1 1 11.9498 15.5436 71.61 0 0 0 
136 1 1 12.5353 16.2788 75.1284 0 0 0 
137 2 1 16.0628 15.3396 74.2307 0 0 0 
138 3 1 19.65 14.3687 75.0559 0 0 0 
139 1 1 13.1208 17.0139 78.6468 0 0 0 
143 2 1 17.2338 16.8099 81.2675 0 0 0 
142 1 1 13.7064 17.7491 82.1652 0 0 0 
144 3 1 20.821 15.839 82.0927 0 0 0 
ITEM: TIMESTEP
100000
ITEM: NUMBER OF ATOMS
144
ITEM: BOX BOUNDS pp pp pp
-163.541 163.541
-163.541 163.541
-163.541 163.541
ITEM: ATOMS id type mol x y z ix iy iz 
12 3 1 14.1832 2.52407 -64.3508 0 0 0 
6 3 1 17.3293 4.74617 -67.8201 0 0 0 
10 1 1 15.6525 9.61711 -61.7977 0 0 0 
11 2 1 14.6293 5.68057 -62.5201 0 0 0 
5 2 1 18.1608 8.48505 -68.0039 0 0 0 
7 1 1 16.0914 11.4403 -65.2229 0 0 0 
1 1 1 17.0262 14.7592 -71.8929 0 0 0 
2 2 1 14.1116 15.7141 -69.1694 0 0 0 
4 1 1 17.0974 12.2242 -68.8958 0 0 0 
3 3 1 10.5026 15.7821 -69.0506 0 0 0 
17 2 1 15.6358 1.51393 -58.0584 0 0 0 
19 1 1 15.7751 2.21937 -53.3891 0 0 0 
20 2 1 15.948 2.9979 -49.3764 0 0 0 
22 1 1 15.6926 -1.27959 -51.5995 0 0 0 
25 1 1 16.1428 -4.11938 -49.0925 0 0 0 
18 3 1 16.4425 -1.25608 -60.4739 0 0 0 
24 3 1 14.4844 -7.85155 -55.431 0 0 0 
23 2 1 14.7558 -4.40932 -53.8044 0 0 0 
16 1 1 15.5154 5.01836 -56.0122 0 0 0 
13 1 1 15.8056 8.14629 -58.1545 0 0 0 
21 3 1 17.4784 3.9529 -45.9967 0 0 0 
14 2 1 16.3552 9.23928 -54.2984 0 0 0 
15 3 1 15.2145 9.94084 -50.8641 0 0 0 
8 2 1 13.6636 13.3433 -62.4523 0 0 0 
9 3 1 12.8913 16.3571 -60.2676 0 0 0 
35 2 1 20.7296 -14.7928 -40.8165 0 0 0 
34 1 1 17.6498 -12.2108 -41.6311 0 0 0 
36 3 1 23.6285 -16.778 -42.3498 0 0 0 
30 3 1 17.3848 -13.5531 -51.9981 0 0 0 
29 2 1 17.7243 -10.7851 -49.9773 0 0 0 
33 3 1 22.2945 -16.0057 -46.8551 0 0 0 
32 2 1 19.7682 -13.3288 -46.4488 0 0 0 
31 1 1 17.824 -10.5481 -45.2793 0 0 0 
26 2 1 16.3224 -3.64407 -44.9914 0 0 0 
27 3 1 17.9683 -2.55929 -41.7465 0 0 0 
28 1 1 17.0494 -7.58321 -47.56 0 0 0 
41 2 1 19.6626 -17.2352 -33.5133 0 0 0 
43 1 1 16.2709 -16.0661 -30.846 0 0 0 
40 1 1 17.0046 -14.9269 -34.4249 0 0 0 
37 1 1 17.1715 -13.1919 -37.8457 0 0 0 
42 3 1 22.6202 -17.871 -31.5079 0 0 0 
38 2 1 15.1422 -10.3987 -35.6031 0 0 0 
39 3 1 14.4475 -7.72581 -33.0261 0 0 0 
48 3 1 17.0055 -24.5373 -24.8975 0 0 0 
44 2 1 14.6047 -13.347 -28.5498 0 0 0 
46 1 1 15.5681 -17.8366 -27.4101 0 0 0 
50 2 1 13.5401 -13.9513 -22.8191 0 0 0 
47 2 1 16.3522 -21.1984 -26.9104 0 0 0 
49 1 1 14.0601 -17.8742 -23.8703 0 0 0 
52 1 1 12.2868 -17.2149 -20.5673 0 0 0 
45 3 1 14.5156 -9.66966 -27.5275 0 0 0 
51 3 1 11.3693 -11.8958 -24.4973 0 0 0 
57 3 1 14.7174 -8.27637 -17.3527 0 0 0 
56 2 1 12.2912 -11.2785 -17.4355 0 0 0 
54 3 1 10.4663 -22.3124 -15.8439 0 0 0 
53 2 1 10.155 -19.5557 -18.3413 0 0 0 
59 2 1 4.76366 -15.4136 -14.5303 0 0 0 
58 1 1 8.35613 -13.8328 -15.0707 0 0 0 
55 1 1 10.7003 -15.043 -17.9171 0 0 0 
61 1 1 6.55546 -12.0653 -12.0788 0 0 0 
62 2 1 9.38378 -9.56277 -10.6412 0 0 0 
63 3 1 11.5553 -8.39537 -7.97758 0 0 0 
66 3 1 -1.33699 -8.35599 -6.39339 0 0 0 
65 2 1 1.46498 -10.4359 -7.79387 0 0 0 
60 3 1 1.11029 -16.0486 -15.4074 0 0 0 
71 2 1 -0.716228 -3.86667 -3.63162 0 0 0 
72 3 1 -3.29461 -1.16212 -3.64151 0 0 0 
64 1 1 5.06597 -10.0135 -9.13526 0 0 0 
67 1 1 4.47686 -7.48218 -6.29912 0 0 0 
70 1 1 3.19943 -5.16333 -3.45568 0 0 0 
68 2 1 6.8926 -4.50985 -5.16575 0 0 0 
73 1 1 3.13201 -2.68753 -0.640578 0 0 0 
69 3 1 8.31664 -0.968723 -5.15329 0 0 0 
74 2 1 6.78147 -1.81986 1.0476 0 0 0 
77 2 1 -0.465461 2.63399 1.81779 0 0 0 
78 3 1 -2.74308 5.16067 1.01978 0 0 0 
79 1 1 1.71819 1.03608 5.80892 0 0 0 
82 1 1 0.0785444 3.07903 8.73783 0 0 0 
83 2 1 -2.42552 6.32447 8.42597 0 0 0 
76 1 1 2.05073 -0.474107 2.33616 0 0 0 
80 2 1 4.12184 0.178433 8.95203 0 0 0 
75 3 1 10.2415 -1.80135 2.76546 0 0 0 
81 3 1 6.07054 -2.47266 10.8022 0 0 0 
90 3 1 -5.87424 12.8393 13.4281 0 0 0 
85 1 1 -1.66078 4.01215 11.9596 0 0 0 
84 3 1 -5.38197 8.02263 7.0361 0 0 0 
89 2 1 -5.01404 9.44752 14.6294 0 0 0 
88 1 1 -3.82712 5.51534 14.8737 0 0 0 
91 1 1 -5.42263 5.66205 18.5073 0 0 0 
87 3 1 -0.77528 -0.751962 17.2466 0 0 0 
86 2 1 -1.38856 2.01467 14.9441 0 0 0 
92 2 1 -3.66439 3.37923 20.9714 0 0 0 
97 1 1 -9.30121 5.81568 25.3177 0 0 0 
95 2 1 -9.82452 9.63107 22.2775 0 0 0 
94 1 1 -7.62661 6.16617 21.7026 0 0 0 
96 3 1 -12.462 11.9752 22.5879 0 0 0 
100 1 1 -9.42494 3.84679 28.7932 0 0 0 
98 2 1 -12.1006 7.72791 27.5496 0 0 0 
93 3 1 0.0619824 3.09048 20.1397 0 0 0 
99 3 1 -13.4919 10.7605 28.3324 0 0 0 
108 3 1 -8.06669 -5.28673 38.278 0 0 0 
102 3 1 -7.38244 -3.12343 30.1331 0 0 0 
104 2 1 -10.4924 6.3514 34.6717 0 0 0 
106 1 1 -9.3465 1.96845 36.2624 0 0 0 
109 1 1 -10.6988 2.28823 39.7741 0 0 0 
107 2 1 -8.06491 -1.56427 37.9716 0 0 0 
110 2 1 -12.743 5.57081 40.9893 0 0 0 
103 1 1 -9.17135 3.00633 32.4949 0 0 0 
101 2 1 -8.6994 -0.134966 28.171 0 0 0 
105 3 1 -13.1594 8.48788 36.2674 0 0 0 
111 3 1 -13.789 8.94512 42.5936 0 0 0 
114 3 1 -7.37008 -2.09952 48.9048 0 0 0 
113 2 1 -9.83892 -0.307167 46.6658 0 0 0 
112 1 1 -11.3647 1.90341 43.5719 0 0 0 
115 1 1 -13.5098 3.08815 46.5834 0 0 0 
118 1 1 -15.2901 3.35705 50.0427 0 0 0 
116 2 1 -15.8831 6.23004 46.8199 0 0 0 
117 3 1 -19.0038 8.2447 46.3296 0 0 0 
125 2 1 -20.8652 3.74332 58.5725 0 0 0 
127 1 1 -22.5667 8.54099 57.5103 0 0 0 
124 1 1 -20.2486 6.08445 55.4854 0 0 0 
121 1 1 -17.8735 5.1069 52.4029 0 0 0 
122 2 1 -19.2976 8.91056 51.3671 0 0 0 
123 3 1 -22.3886 10.7592 50.1977 0 0 0 
126 3 1 -22.5944 1.16161 60.4828 0 0 0 
119 2 1 -15.5517 0.846423 53.3113 0 0 0 
120 3 1 -13.6991 -1.3733 55.6768 0 0 0 
128 2 1 -23.0088 12.0231 55.8462 0 0 0 
132 3 1 -21.2595 10.8891 65.8905 0 0 0 
131 2 1 -23.4548 10.1007 63.2122 0 0 0 
130 1 1 -24.8955 10.3855 59.892 0 0 0 
133 1 1 -27.5301 11.9169 62.1188 0 0 0 
134 2 1 -26.7876 13.984 65.4795 0 0 0 
136 1 1 -30.7924 12.787 64.0751 0 0 0 
141 3 1 -37.9511 17.0574 68.6008 0 0 0 
140 2 1 -36.4716 13.856 67.6627 0 0 0 
139 1 1 -34.4661 11.7737 64.958 0 0 0 
142 1 1 -37.9977 10.3384 65.116 0 0 0 
143 2 1 -40.5879 9.43572 68.136 0 0 0 
129 3 1 -24.9948 14.4106 54.3325 0 0 0 
144 3 1 -43.9917 7.80383 68.9791 0 0 0 
138 3 1 -31.2324 16.9356 69.8032 0 0 0 
137 2 1 -32.012 15.8678 66.2281 0 0 0 
135 3 1 -26.405 14.6999 68.8442 0 0 0 
ITEM: TIMESTEP
200000
ITEM: NUMBER OF ATOMS
144
ITEM: BOX BOUNDS pp pp pp
-163.541 163.541
-163.541 163.541
-163.541 163.541
ITEM: ATOMS id type mol x y z ix iy iz 
2 2 1 53.658 0.358987 -58.0783 0 0 0 
1 1 1 55.2344 4.1312 -58.2799 0 0 0 
7 1 1 49.7473 3.05843 -52.9302 0 0 0 
4 1 1 52.3922 3.94035 -55.6205 0 0 0 
3 3 1 52.3751 -2.95081 -59.4291 0 0 0 
5 2 1 50.3902 7.31164 -55.2245 0 0 0 
6 3 1 47.1087 8.53736 -55.0699 0 0 0 
23 2 1 32.0788 -1.34478 -41.5448 0 0 0 
27 3 1 26.8753 -2.17496 -35.9118 0 0 0 
24 3 1 30.3358 -4.52666 -42.6342 0 0 0 
12 3 1 42.0477 -4.37668 -51.0317 0 0 0 
19 1 1 37.998 1.10694 -43.5446 0 0 0 
17 2 1 39.0245 -2.60854 -46.539 0 0 0 
18 3 1 37.1116 -5.59227 -45.8504 0 0 0 
11 2 1 45.2537 -2.46231 -51.0969 0 0 0 
10 1 1 46.9375 1.24357 -51.1595 0 0 0 
15 3 1 43.6015 6.20054 -43.2667 0 0 0 
14 2 1 44.5646 4.1124 -45.9517 0 0 0 
8 2 1 48.5161 5.77667 -50.1499 0 0 0 
16 1 1 40.7988 1.06703 -46.3247 0 0 0 
13 1 1 44.0157 1.41095 -48.7371 0 0 0 
9 3 1 49.2499 8.44169 -47.4926 0 0 0 
33 3 1 29.9734 3.75265 -24.3337 0 0 0 
26 2 1 30.3575 -1.42638 -37.1105 0 0 0 
28 1 1 31.7375 1.91914 -34.2521 0 0 0 
32 2 1 28.9539 2.44603 -27.5428 0 0 0 
31 1 1 29.6937 0.836232 -31.1057 0 0 0 
25 1 1 33.1955 1.44883 -37.7483 0 0 0 
29 2 1 31.9597 5.34325 -32.15 0 0 0 
30 3 1 31.2403 8.93314 -33.4992 0 0 0 
21 3 1 40.0778 5.92808 -38.209 0 0 0 
20 2 1 39.4545 3.20697 -40.6532 0 0 0 
22 1 1 35.1062 0.730342 -41.0214 0 0 0 
39 3 1 20.4935 -1.47587 -21.3397 0 0 0 
38 2 1 23.2904 -2.77344 -23.6236 0 0 0 
36 3 1 31.5558 -7.80065 -30.7844 0 0 0 
35 2 1 29.1811 -5.09323 -29.3184 0 0 0 
37 1 1 24.6495 -3.48437 -26.8952 0 0 0 
34 1 1 27.4966 -1.68405 -29.0211 0 0 0 
40 1 1 21.9414 -6.3772 -26.2662 0 0 0 
41 2 1 22.082 -10.2333 -27.6378 0 0 0 
54 3 1 8.99843 -18.4245 -14.5089 0 0 0 
53 2 1 11.0507 -15.8818 -15.9317 0 0 0 
57 3 1 11.784 -15.6408 -9.78961 0 0 0 
51 3 1 13.4662 -19.6426 -18.8376 0 0 0 
50 2 1 12.7617 -16.0112 -19.8981 0 0 0 
42 3 1 21.3818 -13.6862 -27.6253 0 0 0 
48 3 1 14.966 -18.4488 -23.6982 0 0 0 
45 3 1 15.5165 -2.53058 -22.6009 0 0 0 
49 1 1 13.7629 -12.2363 -20.8964 0 0 0 
46 1 1 16.5838 -11.3263 -23.3828 0 0 0 
44 2 1 15.8255 -6.37268 -23.1118 0 0 0 
43 1 1 18.9125 -8.58732 -24.7353 0 0 0 
47 2 1 16.4804 -14.8782 -24.3389 0 0 0 
52 1 1 11.0495 -12.5445 -18.2522 0 0 0 
60 3 1 4.07838 -15.0016 -7.69866 0 0 0 
59 2 1 4.91711 -11.6855 -9.58893 0 0 0 
56 2 1 9.8165 -13.0982 -11.607 0 0 0 
71 2 1 -0.749764 2.38342 -1.53691 0 0 0 
67 1 1 0.115819 -2.2516 -6.41499 0 0 0 
70 1 1 -2.37829 -0.00411979 -4.43097 0 0 0 
62 2 1 1.9231 -9.17138 -8.03623 0 0 0 
58 1 1 6.58083 -9.5412 -12.6953 0 0 0 
61 1 1 4.51707 -7.18922 -10.4789 0 0 0 
64 1 1 2.71302 -4.24245 -8.51791 0 0 0 
55 1 1 8.81053 -11.4926 -15.1638 0 0 0 
65 2 1 4.06035 -0.573 -9.47253 0 0 0 
79 1 1 -12.4654 1.62453 0.107869 0 0 0 
76 1 1 -8.76047 1.54728 -0.779435 0 0 0 
80 2 1 -14.5015 4.41125 -2.04887 0 0 0 
74 2 1 -5.44347 4.43673 0.481739 0 0 0 
82 1 1 -15.9559 2.0716 1.70019 0 0 0 
77 2 1 -10.6492 -0.234741 -3.45337 0 0 0 
78 3 1 -13.8032 -1.68301 -4.07775 0 0 0 
73 1 1 -5.14294 1.44696 -2.1894 0 0 0 
68 2 1 -3.60389 -3.41562 -7.0237 0 0 0 
69 3 1 -4.92755 -0.213347 -8.11384 0 0 0 
66 3 1 6.38096 2.20012 -10.0701 0 0 0 
81 3 1 -14.6164 7.30496 -4.0773 0 0 0 
72 3 1 0.886922 1.9822 1.8206 0 0 0 
63 3 1 0.777481 -10.9761 -4.95508 0 0 0 
86 2 1 -22.4279 1.43092 4.20224 0 0 0 
88 1 1 -19.7841 2.76901 8.32797 0 0 0 
87 3 1 -25.226 2.04919 2.25161 0 0 0 
91 1 1 -22.482 3.20993 11.0281 0 0 0 
75 3 1 -4.05011 7.09035 2.21435 0 0 0 
89 2 1 -18.0197 3.45669 12.1001 0 0 0 
85 1 1 -18.483 2.42952 4.58319 0 0 0 
83 2 1 -19.2828 2.44336 -0.432148 0 0 0 
84 3 1 -22.2337 0.666228 -1.76574 0 0 0 
93 3 1 -28.9715 5.78403 10.2197 0 0 0 
101 2 1 -32.777 4.39376 19.6525 0 0 0 
98 2 1 -29.6384 6.23334 15.7533 0 0 0 
99 3 1 -31.1549 9.61555 15.1615 0 0 0 
96 3 1 -23.8787 -4.2174 17.307 0 0 0 
95 2 1 -25.0095 -0.786251 16.3201 0 0 0 
100 1 1 -29.6139 3.08241 20.1693 0 0 0 
92 2 1 -25.4676 5.22831 11.0077 0 0 0 
97 1 1 -27.1659 3.28813 17.1253 0 0 0 
94 1 1 -24.5449 2.63256 14.3491 0 0 0 
90 3 1 -18.7858 6.40288 14.1895 0 0 0 
108 3 1 -39.0925 -1.16001 27.1765 0 0 0 
111 3 1 -38.3432 -4.55155 32.5905 0 0 0 
107 2 1 -35.2414 -1.70279 26.9517 0 0 0 
110 2 1 -35.6729 -2.29695 31.9564 0 0 0 
103 1 1 -31.5955 2.24584 23.3685 0 0 0 
106 1 1 -32.2467 0.701602 26.7982 0 0 0 
109 1 1 -32.2978 -0.552743 30.5259 0 0 0 
105 3 1 -38.9977 2.12363 22.601 0 0 0 
102 3 1 -35.8736 4.38348 17.8138 0 0 0 
104 2 1 -35.4514 2.04485 23.9683 0 0 0 
114 3 1 -35.9773 -6.53784 37.3561 0 0 0 
113 2 1 -32.8759 -5.10097 35.9098 0 0 0 
112 1 1 -31.4468 -1.76518 34.1394 0 0 0 
115 1 1 -29.7222 -1.93609 37.5477 0 0 0 
118 1 1 -26.7879 -1.15312 40.2702 0 0 0 
116 2 1 -30.0317 -3.67561 40.5949 0 0 0 
117 3 1 -29.9419 -6.97923 41.8416 0 0 0 
121 1 1 -25.6395 -0.249982 43.8409 0 0 0 
119 2 1 -22.9496 -1.4443 39.2186 0 0 0 
120 3 1 -23.374 -5.12731 40.0502 0 0 0 
125 2 1 -20.6747 1.67277 47.9706 0 0 0 
126 3 1 -17.7279 2.76422 49.7873 0 0 0 
123 3 1 -28.7084 0.24623 49.9256 0 0 0 
122 2 1 -28.3676 0.445156 46.3859 0 0 0 
124 1 1 -24.5229 1.4702 47.1657 0 0 0 
128 2 1 -26.9941 2.65338 53.8454 0 0 0 
127 1 1 -24.7363 3.39286 50.5473 0 0 0 
129 3 1 -29.2582 0.524021 55.8246 0 0 0 
141 3 1 -34.0219 6.58647 58.1842 0 0 0 
140 2 1 -32.7495 9.88564 59.2453 0 0 0 
144 3 1 -33.0645 21.2328 60.9043 0 0 0 
130 1 1 -23.8709 6.40839 52.9788 0 0 0 
131 2 1 -20.0183 7.83618 52.8515 0 0 0 
132 3 1 -18.1368 10.3513 50.6604 0 0 0 
135 3 1 -18.5308 12.2707 59.8614 0 0 0 
133 1 1 -23.9409 9.192 55.4149 0 0 0 
134 2 1 -20.9543 11.1412 57.3735 0 0 0 
137 2 1 -24.5741 14.2362 60.2262 0 0 0 
136 1 1 -26.0538 11.39 57.9535 0 0 0 
139 1 1 -29.4036 12.0188 59.7552 0 0 0 
142 1 1 -32.2809 13.7073 61.8535 0 0 0 
143 2 1 -32.423 17.7478 62.1157 0 0 0 
138 3 1 -22.3919 13.1816 63.1616 0 0 0 
ITEM: TIMESTEP
300000
ITEM: NUMBER OF ATOMS
144
ITEM: BOX BOUNDS pp pp pp
-163.541 163.541
-163.541 163.541
-163.541 163.541
ITEM: ATOMS id type mol x y z ix iy iz 
42 3 1 21.0033 -16.5476 -26.9603 0 0 0 
39 3 1 24.5582 -20.5356 -24.8806 0 0 0 
46 1 1 18.8062 -8.84051 -19.5319 0 0 0 
41 2 1 21.6187 -15.7557 -23.627 0 0 0 
43 1 1 20.8273 -11.9983 -19.8794 0 0 0 
38 2 1 26.0509 -18.9417 -21.7909 0 0 0 
40 1 1 24.0828 -14.2935 -20.6418 0 0 0 
37 1 1 27.8807 -15.4038 -20.6066 0 0 0 
29 2 1 37.6866 -16.39 -20.4576 0 0 0 
28 1 1 38.7939 -13.1398 -19.3974 0 0 0 
30 3 1 36.9735 -18.9167 -22.8408 0 0 0 
24 3 1 45.5527 -18.5672 -16.4872 0 0 0 
25 1 1 42.1146 -11.3846 -18.7119 0 0 0 
23 2 1 45.1038 -15.1524 -17.7094 0 0 0 
22 1 1 46.0497 -11.3869 -18.6962 0 0 0 
18 3 1 50.6472 -16.616 -22.2633 0 0 0 
17 2 1 51.5315 -13.1549 -22.5193 0 0 0 
12 3 1 61.4598 -14.6752 -21.5231 0 0 0 
55 1 1 10.0975 -1.873 -16.9572 0 0 0 
56 2 1 10.7462 1.24936 -14.3623 0 0 0 
49 1 1 16.0978 -6.18426 -18.7363 0 0 0 
48 3 1 20.0485 -3.57989 -24.9047 0 0 0 
47 2 1 19.5302 -5.66669 -21.9744 0 0 0 
52 1 1 12.8461 -4.48886 -17.4384 0 0 0 
50 2 1 16.3445 -2.18212 -19.4533 0 0 0 
51 3 1 16.0657 0.788765 -21.8085 0 0 0 
26 2 1 39.1943 -8.76691 -17.5927 0 0 0 
27 3 1 41.2212 -5.83561 -17.1076 0 0 0 
19 1 1 49.6028 -9.80329 -19.2172 0 0 0 
21 3 1 46.0154 -3.64436 -20.6998 0 0 0 
20 2 1 48.04 -6.13811 -18.6967 0 0 0 
11 2 1 59.6555 -11.3756 -21.8158 0 0 0 
16 1 1 53.2896 -9.94212 -20.6274 0 0 0 
6 3 1 68.2293 -11.8581 -20.2117 0 0 0 
5 2 1 67.2684 -8.4987 -21.8589 0 0 0 
4 1 1 67.2207 -6.21196 -25.1402 0 0 0 
57 3 1 10.7976 4.88992 -13.1936 0 0 0 
1 1 1 70.6054 -5.54397 -27.0184 0 0 0 
2 2 1 69.2257 -1.92187 -25.902 0 0 0 
3 3 1 68.9624 1.41091 -24.7586 0 0 0 
36 3 1 30.7434 -23.2982 -19.4017 0 0 0 
45 3 1 14.0113 -13.5757 -17.1662 0 0 0 
44 2 1 16.9148 -13.1463 -19.0443 0 0 0 
35 2 1 30.7543 -19.6362 -20.5084 0 0 0 
34 1 1 31.748 -15.6568 -20.0865 0 0 0 
31 1 1 34.9536 -13.5868 -19.5331 0 0 0 
32 2 1 32.3537 -11.5921 -17.9897 0 0 0 
60 3 1 0.278635 -4.10009 -17.3853 0 0 0 
59 2 1 3.01997 -1.49693 -17.6239 0 0 0 
58 1 1 6.69932 0.0962588 -16.6468 0 0 0 
53 2 1 9.51733 -6.866 -17.1014 0 0 0 
54 3 1 9.36903 -9.11599 -19.7563 0 0 0 
33 3 1 30.9283 -9.79427 -14.9334 0 0 0 
13 1 1 56.4778 -8.13261 -21.5207 0 0 0 
10 1 1 59.911 -7.44537 -22.8037 0 0 0 
14 2 1 53.6215 -5.43566 -20.4642 0 0 0 
9 3 1 61.4776 0.559227 -25.0979 0 0 0 
8 2 1 61.3377 -3.04503 -25.121 0 0 0 
7 1 1 63.3772 -6.35991 -24.1124 0 0 0 
63 3 1 7.29865 8.56023 -20.0066 0 0 0 
62 2 1 5.61963 7.14543 -17.2401 0 0 0 
61 1 1 4.50188 3.44138 -16.0372 0 0 0 
65 2 1 0.953585 9.5685 -16.1152 0 0 0 
67 1 1 -1.7777 7.09848 -12.9173 0 0 0 
64 1 1 1.41419 5.7631 -14.7121 0 0 0 
15 3 1 51.1488 -3.03668 -21.2325 0 0 0 
66 3 1 1.82138 13.1974 -16.0997 0 0 0 
75 3 1 -12.5376 8.75071 -10.7583 0 0 0 
69 3 1 -7.65937 10.2015 -16.3386 0 0 0 
84 3 1 -22.3868 8.12719 1.76597 0 0 0 
81 3 1 -18.026 7.49263 -6.37496 0 0 0 
79 1 1 -13.6454 8.23969 -2.92504 0 0 0 
80 2 1 -16.6866 6.21709 -3.00308 0 0 0 
74 2 1 -10.4932 6.50687 -8.48327 0 0 0 
71 2 1 -4.18868 11.8728 -8.47085 0 0 0 
70 1 1 -4.55083 8.30015 -10.3891 0 0 0 
77 2 1 -8.84838 10.634 -1.69636 0 0 0 
76 1 1 -10.2593 8.6829 -5.11088 0 0 0 
73 1 1 -7.40577 8.7605 -7.91965 0 0 0 
68 2 1 -5.02404 8.27516 -15.0217 0 0 0 
72 3 1 -2.70573 14.3386 -6.53266 0 0 0 
89 2 1 -21.7124 10.8819 7.70801 0 0 0 
90 3 1 -24.2601 13.197 9.25498 0 0 0 
86 2 1 -13.015 10.229 7.06639 0 0 0 
82 1 1 -15.2729 8.88628 0.435703 0 0 0 
85 1 1 -16.0355 9.61675 4.22342 0 0 0 
83 2 1 -19.2786 9.56397 0.360115 0 0 0 
88 1 1 -17.6688 9.95456 7.79369 0 0 0 
78 3 1 -6.31245 12.9259 0.0173485 0 0 0 
141 3 1 -51.7875 14.8682 15.0036 0 0 0 
94 1 1 -19.7488 7.36518 14.6529 0 0 0 
96 3 1 -25.9134 4.10975 12.6499 0 0 0 
95 2 1 -23.1583 5.4073 14.1578 0 0 0 
97 1 1 -20.8785 6.44006 18.2675 0 0 0 
98 2 1 -18.8788 5.97523 21.8072 0 0 0 
87 3 1 -11.1623 10.3003 10.2152 0 0 0 
93 3 1 -13.412 9.2341 17.6572 0 0 0 
92 2 1 -15.8216 10.0992 14.852 0 0 0 
91 1 1 -18.0174 9.20734 11.527 0 0 0 
144 3 1 -48.9199 0.0392983 10.4211 0 0 0 
138 3 1 -45.1903 0.0958945 15.7923 0 0 0 
140 2 1 -49.7172 11.7781 14.4316 0 0 0 
139 1 1 -48.6778 8.00424 15.3251 0 0 0 
142 1 1 -49.6321 7.28371 11.6337 0 0 0 
143 2 1 -48.4088 3.71285 10.1758 0 0 0 
136 1 1 -47.8089 6.80057 18.9234 0 0 0 
137 2 1 -46.4232 3.73735 16.5149 0 0 0 
105 3 1 -18.946 4.77627 29.1641 0 0 0 
99 3 1 -16.4044 6.12303 24.415 0 0 0 
135 3 1 -50.1875 -0.18459 19.5606 0 0 0 
130 1 1 -47.0729 6.50038 26.6793 0 0 0 
134 2 1 -48.5286 2.71329 21.1054 0 0 0 
131 2 1 -50.1794 4.29271 25.4443 0 0 0 
133 1 1 -47.5273 6.32443 22.7524 0 0 0 
108 3 1 -32.7275 -0.100093 25.3566 0 0 0 
107 2 1 -30.2317 1.97123 27.4622 0 0 0 
132 3 1 -51.3646 1.03129 24.9662 0 0 0 
104 2 1 -21.8163 3.71943 27.4332 0 0 0 
100 1 1 -23.1716 5.14772 20.9592 0 0 0 
101 2 1 -26.8987 3.39107 20.1291 0 0 0 
103 1 1 -24.4859 4.37815 24.5867 0 0 0 
106 1 1 -26.5837 3.75958 27.9297 0 0 0 
109 1 1 -28.0382 3.03144 31.3424 0 0 0 
129 3 1 -52.6731 9.51075 29.8193 0 0 0 
128 2 1 -49.1715 8.87826 29.5132 0 0 0 
102 3 1 -30.287 2.92017 19.7647 0 0 0 
110 2 1 -26.7544 0.117447 33.9609 0 0 0 
111 3 1 -26.4098 -3.39913 35.1237 0 0 0 
126 3 1 -50.2414 9.66948 35.5942 0 0 0 
124 1 1 -43.7677 6.556 33.5912 0 0 0 
125 2 1 -47.354 8.54012 33.9135 0 0 0 
122 2 1 -43.7642 7.01338 38.3433 0 0 0 
121 1 1 -40.8745 5.50177 36.0325 0 0 0 
127 1 1 -45.7412 6.85903 30.3672 0 0 0 
113 2 1 -28.8969 2.86259 38.4623 0 0 0 
119 2 1 -38.551 5.54934 40.1985 0 0 0 
112 1 1 -30.1349 3.19473 34.5841 0 0 0 
115 1 1 -33.5014 3.52625 36.4244 0 0 0 
118 1 1 -37.26 4.26407 36.5987 0 0 0 
116 2 1 -34.4975 2.46791 40.3355 0 0 0 
123 3 1 -45.6926 9.41341 40.4495 0 0 0 
114 3 1 -28.3981 0.871487 41.4389 0 0 0 
120 3 1 -40.8386 5.6363 42.8224 0 0 0 
117 3 1 -33.7479 2.65171 43.7996 0 0 0 
ITEM: TIMESTEP
400000
ITEM: NUMBER OF ATOMS
144
ITEM: BOX BOUNDS pp pp pp
-163.541 163.541
-163.541 163.541
-163.541 163.541
ITEM: ATOMS id type mol x y z ix iy iz 
36 3 1 36.0977 -13.675 -20.057 0 0 0 
35 2 1 39.6441 -13.0774 -20.6628 0 0 0 
33 3 1 41.4543 -18.5386 -18.7354 0 0 0 
57 3 1 14.2635 -2.07574 -22.6603 0 0 0 
50 2 1 22.4321 -2.05599 -23.0775 0 0 0 
48 3 1 25.6489 -3.50698 -28.8967 0 0 0 
47 2 1 26.6764 -3.27938 -25.5559 0 0 0 
51 3 1 20.6461 -0.886577 -26.2667 0 0 0 
62 2 1 10.1535 -1.23339 -16.0944 0 0 0 
54 3 1 23.8197 -3.82373 -11.6072 0 0 0 
42 3 1 33.2837 -13.5096 -24.7308 0 0 0 
30 3 1 42.6801 -19.7846 -13.5224 0 0 0 
29 2 1 43.8614 -16.2449 -13.9311 0 0 0 
32 2 1 42.6653 -15.3642 -17.8293 0 0 0 
26 2 1 49.0617 -15.7392 -11.0079 0 0 0 
25 1 1 48.8378 -12.3331 -10.3014 0 0 0 
28 1 1 46.072 -13.0948 -12.8738 0 0 0 
31 1 1 43.7056 -12.0113 -15.751 0 0 0 
24 3 1 53.1136 -15.9864 -9.23823 0 0 0 
27 3 1 47.0846 -19.0343 -10.8388 0 0 0 
23 2 1 52.0937 -12.7212 -7.74761 0 0 0 
22 1 1 50.7625 -9.60172 -8.1975 0 0 0 
60 3 1 16.6152 -8.13533 -8.44537 0 0 0 
59 2 1 15.1613 -5.83489 -11.0932 0 0 0 
61 1 1 11.8531 -3.77947 -14.1761 0 0 0 
55 1 1 18.3588 -4.36366 -17.4421 0 0 0 
56 2 1 14.9932 -3.76055 -19.6686 0 0 0 
52 1 1 21.9172 -4.04075 -18.8812 0 0 0 
53 2 1 22.0408 -4.5645 -14.895 0 0 0 
58 1 1 15.5089 -4.51835 -14.8762 0 0 0 
44 2 1 30.5361 -6.86669 -26.276 0 0 0 
41 2 1 33.9604 -9.93851 -23.4793 0 0 0 
43 1 1 32.333 -5.77547 -22.7543 0 0 0 
46 1 1 28.8565 -4.61309 -22.3208 0 0 0 
49 1 1 25.1636 -4.08855 -20.9575 0 0 0 
34 1 1 41.6864 -10.2863 -18.4927 0 0 0 
40 1 1 36.0813 -6.8339 -22.0563 0 0 0 
37 1 1 39.5118 -7.87359 -20.6113 0 0 0 
38 2 1 40.0182 -4.21107 -22.1898 0 0 0 
39 3 1 37.7338 -1.70416 -20.8689 0 0 0 
21 3 1 44.7421 -7.44007 -6.97874 0 0 0 
20 2 1 48.0931 -5.68591 -6.7499 0 0 0 
45 3 1 29.5464 -6.98443 -29.5913 0 0 0 
63 3 1 7.88335 1.62298 -16.7159 0 0 0 
66 3 1 1.9534 -2.9029 -15.8353 0 0 0 
17 2 1 56.4215 -7.10897 -5.73406 0 0 0 
18 3 1 57.8012 -10.1589 -5.00936 0 0 0 
68 2 1 5.3818 -7.23826 -6.84692 0 0 0 
64 1 1 8.51727 -4.00815 -12.4781 0 0 0 
67 1 1 5.96818 -4.81833 -9.53256 0 0 0 
70 1 1 2.89551 -4.27036 -7.29356 0 0 0 
65 2 1 4.97022 -2.32416 -13.9286 0 0 0 
73 1 1 0.671145 -3.69429 -4.18872 0 0 0 
19 1 1 52.1105 -6.38453 -6.58508 0 0 0 
16 1 1 54.1795 -3.93069 -4.44558 0 0 0 
15 3 1 47.7717 -1.2586 -2.59647 0 0 0 
14 2 1 51.6022 -1.68693 -2.07129 0 0 0 
13 1 1 55.6438 -1.30234 -2.15974 0 0 0 
9 3 1 59.3928 -5.09228 -1.83454 0 0 0 
8 2 1 61.4562 -2.96504 0.0248303 0 0 0 
10 1 1 58.5744 0.909987 -0.619703 0 0 0 
5 2 1 65.8696 -2.32352 2.8724 0 0 0 
6 3 1 67.6194 -5.38883 2.322 0 0 0 
69 3 1 6.65687 -9.44589 -4.36717 0 0 0 
74 2 1 1.01563 -3.94269 -0.207737 0 0 0 
75 3 1 -0.0809651 -4.94815 3.37066 0 0 0 
72 3 1 0.211745 -0.339009 -11.6566 0 0 0 
71 2 1 -0.314403 -2.47116 -8.76286 0 0 0 
12 3 1 54.5419 6.73756 -1.51355 0 0 0 
11 2 1 55.9716 3.60098 -1.67072 0 0 0 
7 1 1 62.1965 0.955142 1.16574 0 0 0 
4 1 1 65.7422 1.81188 2.72725 0 0 0 
1 1 1 68.6407 3.97969 4.0353 0 0 0 
126 3 1 -58.2174 1.10269 10.7967 0 0 0 
108 3 1 -36.5867 4.06294 13.492 0 0 0 
102 3 1 -28.7437 2.92266 13.5437 0 0 0 
101 2 1 -27.4135 6.19004 13.8801 0 0 0 
87 3 1 -15.095 -5.40688 7.46531 0 0 0 
86 2 1 -14.472 -2.13256 6.07612 0 0 0 
91 1 1 -16.5815 4.67562 7.42142 0 0 0 
88 1 1 -13.4677 2.83044 6.21931 0 0 0 
93 3 1 -21.7345 8.84732 3.57349 0 0 0 
92 2 1 -20.1226 6.11825 5.77783 0 0 0 
81 3 1 -4.12653 -4.37312 6.22973 0 0 0 
80 2 1 -6.30503 -4.64707 3.53761 0 0 0 
79 1 1 -5.37947 -2.29333 0.406495 0 0 0 
83 2 1 -8.66465 3.25232 2.78765 0 0 0 
82 1 1 -8.13765 -0.760772 2.37338 0 0 0 
85 1 1 -11.3335 0.157629 4.41058 0 0 0 
76 1 1 -2.56229 -2.75906 -2.31392 0 0 0 
77 2 1 -4.78266 0.00611782 -4.10262 0 0 0 
78 3 1 -6.60122 1.95062 -1.91534 0 0 0 
2 2 1 70.956 0.576063 4.02242 0 0 0 
3 3 1 72.594 -2.1719 2.60949 0 0 0 
107 2 1 -34.5151 6.8556 12.6436 0 0 0 
106 1 1 -32.3381 10.3017 13.3381 0 0 0 
103 1 1 -28.5987 10.6598 13.0061 0 0 0 
97 1 1 -21.3614 8.55737 11.7561 0 0 0 
100 1 1 -25.0579 9.12827 12.6384 0 0 0 
89 2 1 -12.3461 6.28003 8.29115 0 0 0 
90 3 1 -12.9495 10.0398 8.89492 0 0 0 
94 1 1 -18.588 6.74504 9.8748 0 0 0 
95 2 1 -16.6671 8.92726 12.7808 0 0 0 
141 3 1 -70.8574 9.39579 29.8397 0 0 0 
140 2 1 -70.8893 6.44756 27.3948 0 0 0 
137 2 1 -70.6114 6.87727 21.237 0 0 0 
138 3 1 -73.2716 8.68605 23.0439 0 0 0 
135 3 1 -69.4653 2.81633 13.6184 0 0 0 
134 2 1 -67.8744 4.42458 16.6722 0 0 0 
136 1 1 -67.2866 4.76127 21.4064 0 0 0 
133 1 1 -64.6537 5.54111 18.7902 0 0 0 
129 3 1 -59.9924 10.9282 21.5504 0 0 0 
132 3 1 -66.8228 7.83603 11.7122 0 0 0 
131 2 1 -64.6996 6.13998 14.0417 0 0 0 
130 1 1 -61.6763 6.42517 16.625 0 0 0 
127 1 1 -57.9781 7.1096 16.0262 0 0 0 
125 2 1 -56.4696 3.65122 12.901 0 0 0 
124 1 1 -54.6561 6.94189 14.0378 0 0 0 
128 2 1 -58.1477 8.58186 19.8451 0 0 0 
123 3 1 -53.3456 1.38485 8.59805 0 0 0 
113 2 1 -41.0806 6.64512 15.8458 0 0 0 
121 1 1 -51.1233 7.57394 12.643 0 0 0 
122 2 1 -52.4469 4.75228 9.98401 0 0 0 
114 3 1 -41.2862 3.27825 17.1761 0 0 0 
120 3 1 -52.3555 14.3023 9.96523 0 0 0 
118 1 1 -47.6801 9.18848 13.1702 0 0 0 
119 2 1 -50.4998 11.9845 12.5195 0 0 0 
115 1 1 -43.9646 9.97686 13.6427 0 0 0 
116 2 1 -45.7163 13.3712 14.4365 0 0 0 
117 3 1 -47.7457 14.5729 17.1271 0 0 0 
112 1 1 -40.0254 9.99216 14.202 0 0 0 
111 3 1 -37.9556 17.7773 14.1714 0 0 0 
110 2 1 -38.1837 14.2309 13.4932 0 0 0 
109 1 1 -36.1953 10.6955 13.6909 0 0 0 
104 2 1 -30.0074 14.2988 12.3201 0 0 0 
105 3 1 -31.1693 17.4713 10.9633 0 0 0 
98 2 1 -21.6261 12.0401 13.8377 0 0 0 
99 3 1 -22.9646 15.4009 14.6264 0 0 0 
96 3 1 -13.7236 11.0816 14.0461 0 0 0 
84 3 1 -8.14263 6.88362 3.90658 0 0 0 
142 1 1 -72.1911 1.92765 26.6547 0 0 0 
139 1 1 -69.7008 3.97161 24.4209 0 0 0 
144 3 1 -73.1672 -3.02853 22.2465 0 0 0 
143 2 1 -73.6464 -1.3134 25.2093 0 0 0 
ITEM: TIMESTEP
500000
ITEM: NUMBER OF ATOMS
144
ITEM: BOX BOUNDS pp pp pp
-163.541 163.541
-163.541 163.541
-163.541 163.541
ITEM: ATOMS id type mol x y z ix iy iz 
15 3 1 59.0251 -35.4951 -10.7937 0 0 0 
9 3 1 67.4433 -37.5744 -10.827 0 0 0 
141 3 1 -70.6858 41.1924 -11.0715 0 0 0 
18 3 1 52.5861 -33.7235 -8.69694 0 0 0 
14 2 1 59.6612 -33.9201 -7.55713 0 0 0 
17 2 1 55.3054 -32.3744 -6.45595 0 0 0 
8 2 1 68.0437 -34.375 -9.57265 0 0 0 
7 1 1 69.4156 -31.6998 -6.79466 0 0 0 
10 1 1 65.5869 -30.9714 -6.34625 0 0 0 
13 1 1 61.8622 -30.8343 -6.24097 0 0 0 
4 1 1 73.2243 -31.8142 -6.143 0 0 0 
1 1 1 77.0765 -31.2919 -6.57312 0 0 0 