ITEM: TIMESTEP
0
ITEM: NUMBER OF ATOMS
162
ITEM: BOX BOUNDS pp pp pp
-170.089 170.089
-170.089 170.089
-170.089 170.089
ITEM: ATOMS id type mol x y z ix iy iz 
6 3 1 -7.86996 -20.184 -90.309 0 0 0 
3 3 1 -22.4058 -19.7735 -90.6412 0 0 0 
1 1 1 -15.5702 -19.0091 -93.7548 0 0 0 
2 2 1 -18.9597 -19.0676 -91.8835 0 0 0 
4 1 1 -14.9846 -18.2739 -90.2364 0 0 0 
5 2 1 -11.4572 -19.2131 -91.1341 0 0 0 
9 3 1 -21.2347 -18.3032 -83.6044 0 0 0 
7 1 1 -14.3991 -17.5388 -86.718 0 0 0 
8 2 1 -17.7886 -17.5972 -84.8467 0 0 0 
10 1 1 -13.8136 -16.8036 -83.1996 0 0 0 
11 2 1 -10.2861 -17.7428 -84.0973 0 0 0 
12 3 1 -6.6989 -18.7136 -83.2722 0 0 0 
15 3 1 -20.0636 -16.8328 -76.5677 0 0 0 
13 1 1 -13.228 -16.0684 -79.6812 0 0 0 
14 2 1 -16.6176 -16.1269 -77.8099 0 0 0 
16 1 1 -12.6425 -15.3333 -76.1628 0 0 0 
19 1 1 -12.057 -14.5981 -72.6444 0 0 0 
20 2 1 -15.4465 -14.6566 -70.7731 0 0 0 
17 2 1 -9.11506 -16.2724 -77.0605 0 0 0 
18 3 1 -5.52784 -17.2433 -76.2353 0 0 0 
21 3 1 -18.8926 -15.3625 -69.5309 0 0 0 
22 1 1 -11.4715 -13.8629 -69.126 0 0 0 
25 1 1 -10.8859 -13.1278 -65.6076 0 0 0 
26 2 1 -14.2754 -13.1863 -63.7363 0 0 0 
27 3 1 -17.7215 -13.8922 -62.4941 0 0 0 
28 1 1 -10.3004 -12.3926 -62.0892 0 0 0 
23 2 1 -7.944 -14.8021 -70.0237 0 0 0 
24 3 1 -4.35678 -15.773 -69.1985 0 0 0 
29 2 1 -6.77294 -13.3318 -62.9869 0 0 0 
30 3 1 -3.18572 -14.3027 -62.1617 0 0 0 
32 2 1 -13.1044 -11.7159 -56.6995 0 0 0 
33 3 1 -16.5505 -12.4218 -55.4573 0 0 0 
31 1 1 -9.71487 -11.6575 -58.5708 0 0 0 
34 1 1 -9.12934 -10.9223 -55.0524 0 0 0 
35 2 1 -5.60187 -11.8615 -55.9501 0 0 0 
36 3 1 -2.01466 -12.8323 -55.1249 0 0 0 
37 1 1 -8.54381 -10.1871 -51.534 0 0 0 
38 2 1 -11.9333 -10.2456 -49.6627 0 0 0 
39 3 1 -15.3794 -10.9515 -48.4205 0 0 0 
41 2 1 -4.43081 -10.3911 -48.9133 0 0 0 
42 3 1 -0.843596 -11.362 -48.0881 0 0 0 
44 2 1 -10.7623 -8.77528 -42.6259 0 0 0 
45 3 1 -14.2083 -9.4812 -41.3836 0 0 0 
40 1 1 -7.95828 -9.45196 -48.0156 0 0 0 
43 1 1 -7.37275 -8.7168 -44.4972 0 0 0 
46 1 1 -6.78722 -7.98163 -40.9788 0 0 0 
47 2 1 -3.25975 -8.92082 -41.8765 0 0 0 
48 3 1 0.327464 -9.89168 -41.0513 0 0 0 
51 3 1 -13.0373 -8.01088 -34.3468 0 0 0 
49 1 1 -6.20169 -7.24647 -37.4604 0 0 0 
50 2 1 -9.59121 -7.30495 -35.5891 0 0 0 
52 1 1 -5.61616 -6.51131 -33.942 0 0 0 
53 2 1 -2.08869 -7.45049 -34.8397 0 0 0 
55 1 1 -5.03063 -5.77614 -30.4236 0 0 0 
54 3 1 1.49853 -8.42135 -34.0145 0 0 0 
57 3 1 -11.8662 -6.54055 -27.31 0 0 0 
63 3 1 -10.6951 -5.07022 -20.2732 0 0 0 
56 2 1 -8.42014 -5.83463 -28.5523 0 0 0 
58 1 1 -4.4451 -5.04098 -26.9052 0 0 0 
59 2 1 -0.91763 -5.98017 -27.8029 0 0 0 
61 1 1 -3.85956 -4.30582 -23.3868 0 0 0 
62 2 1 -7.24908 -4.3643 -21.5155 0 0 0 
60 3 1 2.66959 -6.95103 -26.9778 0 0 0 
65 2 1 0.253431 -4.50984 -20.7661 0 0 0 
64 1 1 -3.27403 -3.57065 -19.8684 0 0 0 
67 1 1 -2.6885 -2.83549 -16.35 0 0 0 
68 2 1 -6.07802 -2.89397 -14.4787 0 0 0 
69 3 1 -9.52409 -3.5999 -13.2364 0 0 0 
70 1 1 -2.10297 -2.10033 -12.8316 0 0 0 
66 3 1 3.84065 -5.4807 -19.9409 0 0 0 
71 2 1 1.42449 -3.03951 -13.7293 0 0 0 
72 3 1 5.01171 -4.01037 -12.9041 0 0 0 
73 1 1 -1.51744 -1.36516 -9.31319 0 0 0 
74 2 1 -4.90696 -1.42365 -7.44193 0 0 0 
75 3 1 -8.35303 -2.12957 -6.19964 0 0 0 
76 1 1 -0.931911 -0.629998 -5.79479 0 0 0 
77 2 1 2.59555 -1.56918 -6.69249 0 0 0 
78 3 1 6.18277 -2.54004 -5.86735 0 0 0 
79 1 1 -0.34638 0.105164 -2.27638 0 0 0 
80 2 1 -3.7359 0.046681 -0.405124 0 0 0 
81 3 1 -7.18197 -0.659241 0.837158 0 0 0 
83 2 1 3.76661 -0.098857 0.344313 0 0 0 
84 3 1 7.35383 -1.06972 1.16945 0 0 0 
86 2 1 -2.56484 1.51701 6.63168 0 0 0 
87 3 1 -6.01091 0.811085 7.87396 0 0 0 
82 1 1 0.23915 0.840328 1.24202 0 0 0 
85 1 1 0.82468 1.57549 4.76042 0 0 0 
88 1 1 1.41021 2.31066 8.27882 0 0 0 
89 2 1 4.93768 1.37147 7.38111 0 0 0 
90 3 1 8.52489 0.400609 8.20626 0 0 0 
92 2 1 -1.39377 2.98733 13.6685 0 0 0 
93 3 1 -4.83985 2.28141 14.9108 0 0 0 
91 1 1 1.99574 3.04582 11.7972 0 0 0 
94 1 1 2.58127 3.78098 15.3156 0 0 0 
95 2 1 6.10874 2.8418 14.4179 0 0 0 
96 3 1 9.69595 1.87094 15.2431 0 0 0 
97 1 1 3.1668 4.51615 18.834 0 0 0 
98 2 1 -0.222713 4.45766 20.7053 0 0 0 
99 3 1 -3.66878 3.75174 21.9476 0 0 0 
105 3 1 -2.49772 5.22207 28.9844 0 0 0 
100 1 1 3.75233 5.25131 22.3524 0 0 0 
101 2 1 7.2798 4.31212 21.4547 0 0 0 
103 1 1 4.33786 5.98647 25.8708 0 0 0 
104 2 1 0.948347 5.92799 27.7421 0 0 0 
106 1 1 4.9234 6.72164 29.3892 0 0 0 
107 2 1 8.45086 5.78245 28.4915 0 0 0 
102 3 1 10.867 3.34126 22.2798 0 0 0 
108 3 1 12.0381 4.81159 29.3167 0 0 0 
111 3 1 -1.32666 6.69239 36.0212 0 0 0 
109 1 1 5.50893 7.4568 32.9076 0 0 0 
110 2 1 2.11941 7.39832 34.7789 0 0 0 
112 1 1 6.09446 8.19196 36.426 0 0 0 
113 2 1 9.62192 7.25278 35.5283 0 0 0 
115 1 1 6.67999 8.92713 39.9444 0 0 0 
114 3 1 13.2091 6.28192 36.3535 0 0 0 
117 3 1 -0.155599 8.16272 43.058 0 0 0 
116 2 1 3.29047 8.86864 41.8157 0 0 0 
118 1 1 7.26552 9.66229 43.4628 0 0 0 
119 2 1 10.793 8.72311 42.5651 0 0 0 
120 3 1 14.3802 7.75224 43.3903 0 0 0 
121 1 1 7.85105 10.3974 46.9812 0 0 0 
122 2 1 4.46153 10.339 48.8525 0 0 0 
125 2 1 11.964 10.1934 49.6019 0 0 0 
123 3 1 1.01546 9.63305 50.0948 0 0 0 
126 3 1 15.5513 9.22257 50.4271 0 0 0 
124 1 1 8.43658 11.1326 50.4996 0 0 0 
127 1 1 9.02211 11.8678 54.018 0 0 0 
128 2 1 5.63259 11.8093 55.8893 0 0 0 
129 3 1 2.18652 11.1034 57.1316 0 0 0 
130 1 1 9.60764 12.6029 57.5364 0 0 0 
131 2 1 13.1351 11.6638 56.6387 0 0 0 
132 3 1 16.7223 10.6929 57.4639 0 0 0 
134 2 1 6.80365 13.2796 62.9261 0 0 0 
135 3 1 3.35758 12.5737 64.1684 0 0 0 
140 2 1 7.97472 14.75 69.9629 0 0 0 
133 1 1 10.1932 13.3381 61.0548 0 0 0 
136 1 1 10.7787 14.0733 64.5732 0 0 0 
137 2 1 14.3062 13.1341 63.6755 0 0 0 
138 3 1 17.8934 12.1632 64.5007 0 0 0 
139 1 1 11.3642 14.8084 68.0916 0 0 0 
141 3 1 4.52865 14.044 71.2052 0 0 0 
146 2 1 9.14578 16.2203 76.9997 0 0 0 
147 3 1 5.69971 15.5144 78.242 0 0 0 
142 1 1 11.9498 15.5436 71.61 0 0 0 
143 2 1 15.4772 14.6044 70.7123 0 0 0 
144 3 1 19.0644 13.6335 71.5375 0 0 0 
145 1 1 12.5353 16.2788 75.1284 0 0 0 
148 1 1 13.1208 17.0139 78.6468 0 0 0 
149 2 1 16.6483 16.0747 77.7491 0 0 0 
150 3 1 20.2355 15.1039 78.5743 0 0 0 
153 3 1 6.87077 16.9847 85.2788 0 0 0 
151 1 1 13.7064 17.7491 82.1652 0 0 0 
152 2 1 10.3168 17.6906 84.0365 0 0 0 
154 1 1 14.2919 18.4842 85.6836 0 0 0 
155 2 1 17.8194 17.5451 84.7859 0 0 0 
157 1 1 14.8774 19.2194 89.202 0 0 0 
156 3 1 21.4066 16.5742 85.6111 0 0 0 
159 3 1 8.04183 18.455 92.3156 0 0 0 
158 2 1 11.4879 19.1609 91.0733 0 0 0 
160 1 1 15.4629 19.9546 92.7204 0 0 0 
161 2 1 18.9904 19.0154 91.8227 0 0 0 
162 3 1 22.5776 18.0445 92.6479 0 0 0 
ITEM: TIMESTEP
100000
ITEM: NUMBER OF ATOMS
162
ITEM: BOX BOUNDS pp pp pp
-170.089 170.089
-170.089 170.089
-170.089 170.089
ITEM: ATOMS id type mol x y z ix iy iz 
1 1 1 34.3304 -22.8248 -76.9474 0 0 0 
3 3 1 30.564 -23.4735 -70.4949 0 0 0 
2 2 1 32.6535 -23.2934 -73.3383 0 0 0 
4 1 1 35.7958 -19.816 -75.1027 0 0 0 
8 2 1 36.8223 -18.6308 -68.7695 0 0 0 
7 1 1 36.6161 -17.12 -72.4711 0 0 0 
9 3 1 36.3124 -21.5402 -66.3175 0 0 0 
11 2 1 41.6037 -13.53 -69.3061 0 0 0 
12 3 1 45.0242 -12.7932 -70.4445 0 0 0 
10 1 1 37.6702 -14.0347 -70.2581 0 0 0 
5 2 1 38.0602 -17.3545 -77.2886 0 0 0 
6 3 1 39.9407 -15.48 -79.4707 0 0 0 
15 3 1 44.1673 -9.76839 -65.0092 0 0 0 
18 3 1 29.7525 -5.01269 -67.3678 0 0 0 
22 1 1 34.1104 -3.06461 -60.5136 0 0 0 
17 2 1 33.3041 -5.22845 -67.1809 0 0 0 
13 1 1 37.6709 -10.7572 -68.0818 0 0 0 
19 1 1 35.787 -5.09919 -63.4063 0 0 0 
16 1 1 36.3135 -7.78304 -65.9712 0 0 0 
20 2 1 38.5476 -2.60052 -62.3904 0 0 0 
14 2 1 40.9679 -8.85628 -66.4531 0 0 0 
23 2 1 31.8323 -0.395371 -61.6669 0 0 0 
26 2 1 32.6664 -3.48323 -53.4313 0 0 0 
21 3 1 41.3437 -0.945844 -60.4448 0 0 0 
27 3 1 34.6191 -4.77763 -50.5515 0 0 0 
24 3 1 30.3254 3.05198 -61.3562 0 0 0 
28 1 1 31.1682 0.94788 -55.0137 0 0 0 
25 1 1 32.7426 -1.79318 -57.114 0 0 0 
29 2 1 30.7557 4.6256 -56.6484 0 0 0 
30 3 1 28.2279 6.19406 -58.8535 0 0 0 
31 1 1 29.8633 3.38804 -52.1951 0 0 0 
38 2 1 31.0613 3.59076 -41.9884 0 0 0 
39 3 1 32.9107 0.697762 -41.8214 0 0 0 
34 1 1 29.217 4.91541 -48.8098 0 0 0 
32 2 1 27.7521 6.70484 -53.2577 0 0 0 
35 2 1 27.1179 8.17666 -48.0345 0 0 0 
36 3 1 25.6039 11.2453 -47.6043 0 0 0 
37 1 1 29.1137 5.45774 -44.9054 0 0 0 
33 3 1 27.4955 10.0801 -52.9823 0 0 0 
44 2 1 28.1851 2.68184 -35.8325 0 0 0 
45 3 1 29.2096 -0.93062 -36.012 0 0 0 
42 3 1 28.0136 13.7804 -39.6306 0 0 0 
43 1 1 26.4792 5.76937 -37.8702 0 0 0 
40 1 1 27.8231 6.65679 -41.3935 0 0 0 
41 2 1 26.7004 10.5013 -40.8687 0 0 0 
46 1 1 24.8875 5.55577 -34.3338 0 0 0 
51 3 1 21.5109 11.643 -26.2893 0 0 0 
47 2 1 23.6512 1.84129 -33.1679 0 0 0 
54 3 1 18.6805 -0.477755 -24.704 0 0 0 
48 3 1 23.3473 -1.82481 -32.9402 0 0 0 
50 2 1 22.3401 9.49953 -29.0957 0 0 0 
52 1 1 22.276 5.49909 -27.181 0 0 0 
49 1 1 23.7065 5.90828 -30.7449 0 0 0 
56 2 1 22.4942 2.57313 -20.7437 0 0 0 
55 1 1 21.7557 5.20463 -23.4086 0 0 0 
53 2 1 19.6804 2.42192 -26.3168 0 0 0 
57 3 1 21.9831 0.0494634 -18.1157 0 0 0 
72 3 1 5.16024 10.4041 -9.06933 0 0 0 
68 2 1 10.7755 11.6211 -11.172 0 0 0 
69 3 1 7.56132 12.82 -12.6426 0 0 0 
71 2 1 8.39422 10.1006 -7.67437 0 0 0 
67 1 1 14.2846 9.49488 -10.906 0 0 0 
58 1 1 20.6553 7.167 -20.2512 0 0 0 
61 1 1 19.0176 8.45833 -16.8605 0 0 0 
64 1 1 16.7456 9.04092 -13.8495 0 0 0 
59 2 1 20.6607 11.2321 -20.6955 0 0 0 
60 3 1 21.7323 14.8527 -20.2751 0 0 0 
62 2 1 19.6046 12.4182 -15.726 0 0 0 
65 2 1 18.4316 10.7175 -10.7226 0 0 0 
63 3 1 22.0376 14.591 -13.8562 0 0 0 
78 3 1 1.16632 8.63537 -0.402992 0 0 0 
77 2 1 4.69351 8.77696 -0.880246 0 0 0 
76 1 1 8.31247 6.7381 -1.15622 0 0 0 
70 1 1 12.2688 8.70249 -7.70571 0 0 0 
73 1 1 10.7938 7.42487 -4.29913 0 0 0 
74 2 1 12.2765 5.69904 -0.84668 0 0 0 
66 3 1 20.6532 10.3316 -7.64452 0 0 0 
83 2 1 1.26318 7.79767 5.66663 0 0 0 
84 3 1 0.470526 11.0446 6.77951 0 0 0 
80 2 1 6.97809 1.87146 4.22187 0 0 0 
86 2 1 2.90736 -0.783744 8.35272 0 0 0 
79 1 1 6.43559 5.18511 1.85584 0 0 0 
82 1 1 3.50998 5.09716 4.54837 0 0 0 
85 1 1 1.53125 2.98772 7.17921 0 0 0 
88 1 1 -0.897133 1.51394 9.86566 0 0 0 
81 3 1 6.41553 -1.82846 5.14116 0 0 0 
75 3 1 13.941 4.87862 2.37302 0 0 0 
98 2 1 -6.52018 0.711855 21.4773 0 0 0 
97 1 1 -8.52009 0.801204 18.0828 0 0 0 
99 3 1 -4.26016 1.49736 24.0987 0 0 0 
89 2 1 -1.5773 -2.45467 10.1525 0 0 0 
90 3 1 -1.91019 -6.12614 9.09323 0 0 0 
95 2 1 -7.20354 -3.81163 16.3847 0 0 0 
96 3 1 -8.94984 -6.80026 16.2197 0 0 0 
94 1 1 -5.86061 -0.0469815 15.3329 0 0 0 
91 1 1 -3.37563 1.2087 12.8317 0 0 0 
93 3 1 -5.99173 6.55203 17.7827 0 0 0 
92 2 1 -5.01362 4.31685 14.9666 0 0 0 
87 3 1 4.33869 -2.93252 10.6809 0 0 0 
109 1 1 -16.7874 1.72883 30.44 0 0 0 
106 1 1 -15.2319 2.64513 26.9813 0 0 0 
105 3 1 -11.2575 -3.9677 28.7759 0 0 0 
100 1 1 -10.7975 2.51518 20.63 0 0 0 
104 2 1 -12.1605 -0.825275 26.8889 0 0 0 
103 1 1 -12.8398 1.96621 24.0484 0 0 0 
107 2 1 -17.7496 5.75188 27.9544 0 0 0 
108 3 1 -20.8601 7.85748 28.2855 0 0 0 
102 3 1 -15.0557 8.60583 18.611 0 0 0 
101 2 1 -12.9661 6.02925 20.078 0 0 0 
117 3 1 -20.0902 -10.0338 34.337 0 0 0 
118 1 1 -22.8931 -3.84865 38.3038 0 0 0 
116 2 1 -19.9226 -6.21475 35.3486 0 0 0 
115 1 1 -20.5841 -2.17081 35.774 0 0 0 
113 2 1 -20.2945 2.45922 36.7876 0 0 0 
112 1 1 -18.6855 0.396524 33.5155 0 0 0 
114 3 1 -21.7771 5.7211 36.9424 0 0 0 
120 3 1 -24.9567 1.78474 42.3336 0 0 0 
110 2 1 -17.4025 4.78863 33.0679 0 0 0 
111 3 1 -18.4301 8.32963 34.1535 0 0 0 
126 3 1 -27.4551 -15.4349 43.6687 0 0 0 
119 2 1 -24.9741 -1.6599 40.7408 0 0 0 
122 2 1 -26.2312 -3.40704 43.3528 0 0 0 
121 1 1 -24.5815 -6.01768 41.0452 0 0 0 
127 1 1 -28.4103 -8.29075 46.8567 0 0 0 
124 1 1 -26.6101 -8.02348 43.5076 0 0 0 
125 2 1 -27.362 -11.8255 42.5817 0 0 0 
123 3 1 -29.4308 -1.31211 44.0377 0 0 0 
129 3 1 -32.1846 -13.7098 51.1847 0 0 0 
156 3 1 -51.2803 -2.08867 51.9009 0 0 0 
155 2 1 -51.6681 -3.18706 55.5311 0 0 0 
149 2 1 -45.7418 -1.8038 56.3875 0 0 0 
151 1 1 -47.9958 -0.798043 60.4388 0 0 0 
150 3 1 -46.168 -4.76017 54.7335 0 0 0 
135 3 1 -36.9578 -3.66903 56.6399 0 0 0 
134 2 1 -34.0081 -3.62535 54.0372 0 0 0 
133 1 1 -31.2961 -2.99043 51.1415 0 0 0 
130 1 1 -30.5265 -6.38763 49.3819 0 0 0 
132 3 1 -35.9221 -8.97419 53.6439 0 0 0 
131 2 1 -33.2783 -7.13592 51.7848 0 0 0 
128 2 1 -29.7766 -11.1518 49.5132 0 0 0 
147 3 1 -41.8093 1.16178 67.036 0 0 0 
152 2 1 -49.8623 -0.779832 63.9958 0 0 0 
153 3 1 -52.6168 -0.392827 66.5358 0 0 0 
144 3 1 -36.073 7.45357 61.6013 0 0 0 
146 2 1 -41.2888 1.59259 63.5765 0 0 0 
143 2 1 -37.3628 3.7946 61.8027 0 0 0 
142 1 1 -37.0919 1.93227 58.1601 0 0 0 
145 1 1 -40.6799 1.21129 59.5116 0 0 0 
148 1 1 -44.3066 0.208902 59.7192 0 0 0 
137 2 1 -30.2857 3.9104 53.9581 0 0 0 
138 3 1 -30.9277 7.36618 54.3713 0 0 0 
136 1 1 -31.5956 0.220901 53.2723 0 0 0 
141 3 1 -31.3062 8.51364 59.1979 0 0 0 
140 2 1 -32.5443 4.87428 58.5537 0 0 0 
139 1 1 -33.8079 1.89134 56.0611 0 0 0 
159 3 1 -55.8974 -4.26089 52.5724 0 0 0 
158 2 1 -57.0251 -3.08919 56.0506 0 0 0 
160 1 1 -58.8747 -4.73728 59.7298 0 0 0 
154 1 1 -51.417 -2.36436 59.1584 0 0 0 
157 1 1 -55.2083 -3.51716 58.9657 0 0 0 
161 2 1 -59.9439 -6.6582 62.5226 0 0 0 
162 3 1 -62.62 -9.21543 63.4548 0 0 0 
ITEM: TIMESTEP
200000
ITEM: NUMBER OF ATOMS
162
ITEM: BOX BOUNDS pp pp pp
-170.089 170.089
-170.089 170.089
-170.089 170.089
ITEM: ATOMS id type mol x y z ix iy iz 
60 3 1 17.6969 23.9739 -24.5998 0 0 0 
69 3 1 0.949059 22.9369 -20.8356 0 0 0 
66 3 1 6.7012 26.5368 -18.6907 0 0 0 
65 2 1 9.03789 23.9588 -17.0136 0 0 0 
62 2 1 12.8522 23.9074 -19.5654 0 0 0 
63 3 1 11.044 26.3894 -21.7941 0 0 0 
59 2 1 18.2018 21.5336 -21.6934 0 0 0 
92 2 1 -21.4909 6.74865 -14.2202 0 0 0 
93 3 1 -22.9093 8.40928 -17.131 0 0 0 
79 1 1 -6.71504 12.0332 -16.0595 0 0 0 
76 1 1 -2.90743 12.7569 -16.1772 0 0 0 
75 3 1 -5.2924 20.992 -18.0512 0 0 0 
80 2 1 -9.37886 14.399 -17.5877 0 0 0 
74 2 1 -3.34567 17.7602 -17.3741 0 0 0 
68 2 1 3.65213 21.35 -19.0869 0 0 0 
71 2 1 4.73963 13.5882 -16.0869 0 0 0 
67 1 1 6.7542 19.0791 -17.7043 0 0 0 
70 1 1 3.44665 17.2637 -16.7326 0 0 0 
73 1 1 -0.0918865 15.3959 -16.5813 0 0 0 
58 1 1 18.3556 19.7867 -17.9463 0 0 0 
64 1 1 10.5826 20.2656 -17.9313 0 0 0 
61 1 1 14.3721 20.6326 -18.153 0 0 0 
56 2 1 18.5566 16.9136 -14.5027 0 0 0 
57 3 1 15.9772 16.4411 -11.924 0 0 0 
52 1 1 24.8579 16.7672 -14.6032 0 0 0 
55 1 1 21.479 17.9664 -16.3497 0 0 0 
53 2 1 25.2877 17.7584 -18.159 0 0 0 
54 3 1 23.8081 19.1012 -21.2081 0 0 0 
49 1 1 27.5189 15.3963 -12.0516 0 0 0 
50 2 1 24.1063 15.7062 -10.1499 0 0 0 
48 3 1 32.3184 15.1964 -17.213 0 0 0 
47 2 1 31.7383 15.4617 -13.5249 0 0 0 
46 1 1 30.6008 14.2666 -9.77163 0 0 0 
81 3 1 -10.6487 17.9299 -16.7351 0 0 0 
42 3 1 32.4088 6.10403 -6.98953 0 0 0 
114 3 1 -42.7152 -13.2946 -0.152401 0 0 0 
111 3 1 -42.3474 -11.5847 -5.37608 0 0 0 
110 2 1 -39.7369 -8.72745 -5.87501 0 0 0 
117 3 1 -40.4941 -12.8016 5.47942 0 0 0 
116 2 1 -41.742 -9.55593 3.71465 0 0 0 
113 2 1 -41.9592 -10.0382 -0.525012 0 0 0 
115 1 1 -40.7534 -6.65122 1.78311 0 0 0 
112 1 1 -39.2719 -7.0598 -1.69631 0 0 0 
107 2 1 -33.0525 -5.03291 -2.12423 0 0 0 
109 1 1 -36.8961 -6.71846 -4.85054 0 0 0 
106 1 1 -33.5551 -5.29268 -6.17575 0 0 0 
105 3 1 -37.1176 -5.90369 -12.811 0 0 0 
104 2 1 -33.8019 -5.77641 -10.7911 0 0 0 
103 1 1 -30.9068 -3.81036 -8.75451 0 0 0 
100 1 1 -27.7275 -1.57421 -9.07086 0 0 0 
98 2 1 -29.4821 2.1888 -11.9749 0 0 0 
99 3 1 -32.8377 3.45496 -11.5546 0 0 0 
12 3 1 74.2299 1.15687 4.92317 0 0 0 
108 3 1 -32.0619 -6.2632 0.936617 0 0 0 
102 3 1 -24.9298 -5.39645 -3.1396 0 0 0 
101 2 1 -26.7422 -3.59107 -5.64076 0 0 0 
95 2 1 -22.5058 1.5351 -6.68019 0 0 0 
97 1 1 -25.8945 1.54444 -10.3522 0 0 0 
94 1 1 -22.4397 3.535 -10.1415 0 0 0 
89 2 1 -15.5578 5.27001 -7.87344 0 0 0 
91 1 1 -19.229 5.60252 -11.0196 0 0 0 
88 1 1 -15.6204 6.81281 -11.3431 0 0 0 
86 2 1 -11.838 7.44235 -9.30377 0 0 0 
87 3 1 -11.5532 7.92833 -5.77984 0 0 0 
72 3 1 6.21796 11.0952 -14.0274 0 0 0 
21 3 1 57.3388 6.54462 -2.42905 0 0 0 
20 2 1 58.4473 3.93116 -0.0025965 0 0 0 
15 3 1 69.1713 6.14585 4.61246 0 0 0 
18 3 1 62.2247 8.45374 7.2471 0 0 0 
17 2 1 62.8955 5.30345 5.61045 0 0 0 
14 2 1 67.1473 3.29701 4.20449 0 0 0 
84 3 1 -17.0819 13.9072 -16.4613 0 0 0 
85 1 1 -12.5682 8.58433 -12.9647 0 0 0 
83 2 1 -14.3207 11.4626 -16.2172 0 0 0 
82 1 1 -10.2525 10.7568 -15.2551 0 0 0 
77 2 1 -1.9854 9.31386 -16.245 0 0 0 
78 3 1 -0.807583 6.59205 -18.1114 0 0 0 
45 3 1 29.6844 19.2597 -3.84378 0 0 0 
41 2 1 34.5576 8.81042 -6.98681 0 0 0 
44 2 1 31.8585 16.9669 -5.48866 0 0 0 
43 1 1 33.2909 13.512 -7.17929 0 0 0 
40 1 1 36.5316 11.9208 -5.75974 0 0 0 
38 2 1 39.1412 15.8014 -6.07431 0 0 0 
39 3 1 38.8289 18.3643 -8.52594 0 0 0 
36 3 1 46.487 15.6157 -6.18836 0 0 0 
35 2 1 44.5789 14.8782 -3.41042 0 0 0 
37 1 1 39.8768 12.3056 -4.02669 0 0 0 
34 1 1 43.0699 11.3447 -1.79307 0 0 0 
29 2 1 49.6948 8.76812 -2.92759 0 0 0 
30 3 1 50.9538 8.79535 -6.21085 0 0 0 
51 3 1 20.6559 13.976 -10.2562 0 0 0 
161 2 1 -30.748 -34.1845 7.49823 0 0 0 
159 3 1 -33.7413 -39.5965 17.276 0 0 0 
160 1 1 -33.1038 -36.5496 9.86491 0 0 0 
123 3 1 -37.3427 -5.92149 14.7027 0 0 0 
122 2 1 -39.804 -4.99625 12.0632 0 0 0 
1 1 1 76.3334 -10.3469 10.3804 0 0 0 
126 3 1 -51.1306 -0.274266 11.5544 0 0 0 
120 3 1 -49.1074 -3.07135 5.57349 0 0 0 
125 2 1 -48.4717 -3.12987 11.2387 0 0 0 
119 2 1 -45.2639 -2.99241 5.98416 0 0 0 
124 1 1 -44.803 -4.60113 12.214 0 0 0 
121 1 1 -42.526 -5.06868 9.03341 0 0 0 
118 1 1 -42.1176 -5.37073 5.13996 0 0 0 
8 2 1 66.2954 -6.5812 8.78699 0 0 0 
7 1 1 70.3914 -6.04589 8.27773 0 0 0 
10 1 1 68.5332 -3.15401 6.45307 0 0 0 
13 1 1 66.0145 -0.502359 5.23556 0 0 0 
11 2 1 71.0682 0.0296451 5.75959 0 0 0 
6 3 1 75.7622 -4.14838 3.70551 0 0 0 
4 1 1 73.1655 -8.29891 9.47999 0 0 0 
5 2 1 74.4155 -5.16001 7.1989 0 0 0 
96 3 1 -22.1237 -0.686774 -3.83842 0 0 0 
90 3 1 -17.0204 3.42789 -5.02403 0 0 0 
25 1 1 52.4363 6.40348 2.90453 0 0 0 
22 1 1 55.5836 4.11021 3.61257 0 0 0 
23 2 1 52.2624 2.58582 5.38654 0 0 0 
19 1 1 59.2638 3.02177 3.82861 0 0 0 
26 2 1 50.2232 8.10805 5.57967 0 0 0 
16 1 1 62.791 1.52866 4.3819 0 0 0 
33 3 1 39.6056 9.16928 4.5998 0 0 0 
32 2 1 42.0785 9.66576 1.66131 0 0 0 
31 1 1 45.9477 9.56903 0.000339108 0 0 0 
28 1 1 49.2949 8.02812 1.15832 0 0 0 
27 3 1 48.3152 6.44156 8.43402 0 0 0 
162 3 1 -29.4512 -31.3333 5.59345 0 0 0 
155 2 1 -36.9292 -31.0602 10.2252 0 0 0 
158 2 1 -35.5185 -38.0143 14.2484 0 0 0 
154 1 1 -37.1704 -31.5583 14.0322 0 0 0 
157 1 1 -35.3248 -34.7115 12.5619 0 0 0 
153 3 1 -36.0456 -35.5438 18.953 0 0 0 
156 3 1 -37.2426 -30.9296 6.70538 0 0 0 
150 3 1 -46.3383 -28.1189 12.3428 0 0 0 
149 2 1 -44.1583 -28.093 15.3328 0 0 0 
152 2 1 -37.3127 -32.2413 18.6961 0 0 0 
151 1 1 -39.0847 -29.5266 16.5851 0 0 0 
148 1 1 -41.5854 -27.0406 18.3962 0 0 0 
3 3 1 72.3676 -6.67847 15.9365 0 0 0 
2 2 1 74.1821 -9.00767 13.5854 0 0 0 
128 2 1 -50.8181 -4.72418 16.8649 0 0 0 
131 2 1 -48.3726 -5.45632 22.5082 0 0 0 
129 3 1 -54.3516 -4.08873 16.5442 0 0 0 
127 1 1 -46.9758 -5.08897 15.3498 0 0 0 
130 1 1 -46.9097 -6.72086 18.9203 0 0 0 
9 3 1 63.6555 -4.82448 10.6363 0 0 0 
24 3 1 49.8684 0.155786 6.0427 0 0 0 
145 1 1 -42.2849 -23.9344 20.7065 0 0 0 
147 3 1 -38.0809 -29.3772 23.8294 0 0 0 
146 2 1 -39.8828 -26.4842 22.7123 0 0 0 
136 1 1 -44.6939 -13.0084 22.7019 0 0 0 
133 1 1 -45.9523 -9.70057 21.181 0 0 0 
139 1 1 -43.5752 -16.6989 23.2009 0 0 0 
137 2 1 -44.2709 -13.4295 26.6314 0 0 0 
138 3 1 -43.7392 -12.5137 30.3499 0 0 0 
144 3 1 -40.3535 -24.1168 28.3813 0 0 0 
142 1 1 -42.8602 -20.4996 22.3364 0 0 0 
143 2 1 -41.9097 -23.0853 25.4443 0 0 0 
141 3 1 -42.6863 -18.3861 30.3302 0 0 0 
140 2 1 -42.7091 -18.2988 26.7296 0 0 0 
132 3 1 -50.6735 -3.85979 24.8028 0 0 0 
135 3 1 -50.8404 -12.5166 25.5462 0 0 0 
134 2 1 -48.5368 -10.3558 23.5889 0 0 0 
ITEM: TIMESTEP
300000
ITEM: NUMBER OF ATOMS
162
ITEM: BOX BOUNDS pp pp pp
-170.089 170.089
-170.089 170.089
-170.089 170.089
ITEM: ATOMS id type mol x y z ix iy iz 
162 3 1 -76.2547 -31.9071 -29.8119 0 0 0 
157 1 1 -68.6464 -32.578 -23.7711 0 0 0 
160 1 1 -70.302 -34.0329 -27.1133 0 0 0 
161 2 1 -73.9392 -33.7316 -27.9699 0 0 0 
155 2 1 -64.8801 -34.7542 -21.2505 0 0 0 
159 3 1 -73.8919 -27.2114 -25.4443 0 0 0 
158 2 1 -71.8426 -30.3473 -24.4724 0 0 0 
154 1 1 -67.3454 -31.855 -20.2469 0 0 0 
156 3 1 -62.3195 -37.2702 -20.9682 0 0 0 
153 3 1 -74.3139 -29.8485 -17.4267 0 0 0 
152 2 1 -70.6485 -29.789 -17.7176 0 0 0 
151 1 1 -66.7075 -30.1948 -16.7766 0 0 0 
148 1 1 -65.0361 -28.7447 -13.6709 0 0 0 
146 2 1 -67.7714 -26.1607 -10.6444 0 0 0 
147 3 1 -69.2271 -26.3345 -7.00002 0 0 0 
150 3 1 -60.0537 -32.3701 -18.171 0 0 0 
145 1 1 -63.6922 -26.4739 -10.7804 0 0 0 
149 2 1 -62.3268 -31.3818 -15.268 0 0 0 
144 3 1 -56.8461 -30.2044 -8.37761 0 0 0 
143 2 1 -59.1261 -27.5656 -10.2159 0 0 0 
93 3 1 -12.5285 -9.62254 -8.75579 0 0 0 
60 3 1 16.0099 21.0913 0.181036 0 0 0 
141 3 1 -66.2106 -26.2378 -2.85758 0 0 0 
142 1 1 -61.3998 -24.6473 -8.49918 0 0 0 
139 1 1 -60.4104 -21.9696 -5.85159 0 0 0 
140 2 1 -63.9872 -23.5131 -4.60162 0 0 0 
136 1 1 -58.6462 -19.7639 -3.2369 0 0 0 
133 1 1 -55.7017 -18.938 -1.03566 0 0 0 
122 2 1 -43.6054 -15.9134 7.65249 0 0 0 
123 3 1 -43.7203 -15.1161 11.0239 0 0 0 
102 3 1 -20.5337 -9.97567 -12.6794 0 0 0 
134 2 1 -54.4446 -21.6854 -3.76931 0 0 0 
135 3 1 -54.8368 -25.0055 -4.60063 0 0 0 
125 2 1 -49.0107 -14.1869 7.62661 0 0 0 
126 3 1 -48.1289 -17.1356 9.37603 0 0 0 
120 3 1 -41.5902 -13.4618 -3.87506 0 0 0 
108 3 1 -31.5307 -14.9312 -10.2301 0 0 0 
107 2 1 -30.0575 -14.5074 -7.00245 0 0 0 
103 1 1 -24.3686 -12.0679 -5.58408 0 0 0 
104 2 1 -27.5151 -11.6803 -8.27745 0 0 0 
105 3 1 -25.5219 -13.0577 -11.2261 0 0 0 
106 1 1 -27.2176 -14.3055 -4.28753 0 0 0 
101 2 1 -21.4001 -10.2926 -8.85078 0 0 0 
100 1 1 -20.8071 -10.4423 -4.88157 0 0 0 
97 1 1 -17.8838 -9.6986 -2.47155 0 0 0 
92 2 1 -12.3924 -7.45337 -5.8019 0 0 0 
87 3 1 -6.92203 -8.53739 -7.19609 0 0 0 
94 1 1 -14.5349 -8.21597 -1.52691 0 0 0 
91 1 1 -11.4379 -5.86306 -2.14473 0 0 0 
86 2 1 -5.46736 -6.07823 -4.94299 0 0 0 
85 1 1 -5.63494 -1.98719 -4.22627 0 0 0 
88 1 1 -8.63853 -3.20136 -2.16215 0 0 0 
78 3 1 3.96397 -0.439839 -3.15188 0 0 0 
82 1 1 -3.20122 0.768567 -5.42817 0 0 0 
80 2 1 -3.93292 5.73792 -8.48505 0 0 0 
74 2 1 1.90254 9.26783 -9.22063 0 0 0 
79 1 1 -1.20313 4.13966 -6.33276 0 0 0 
76 1 1 2.11127 6.02772 -5.79507 0 0 0 
73 1 1 4.64906 8.71016 -6.34292 0 0 0 
77 2 1 2.50015 2.61866 -3.79496 0 0 0 
70 1 1 7.78389 10.3903 -4.83239 0 0 0 
71 2 1 7.38014 6.81325 -3.06933 0 0 0 
81 3 1 -5.88853 6.99701 -11.4374 0 0 0 
75 3 1 -1.25694 11.0729 -10.7772 0 0 0 
69 3 1 5.10438 17.3335 -6.17867 0 0 0 
68 2 1 7.35483 14.9254 -4.45892 0 0 0 
67 1 1 10.7695 12.8022 -3.58503 0 0 0 
65 2 1 11.3112 17.724 -3.43853 0 0 0 
64 1 1 13.9447 14.7319 -2.42296 0 0 0 
66 3 1 10.2547 20.9168 -2.86447 0 0 0 
62 2 1 16.927 10.7993 -1.32263 0 0 0 
59 2 1 19.2702 19.1306 0.208721 0 0 0 
61 1 1 17.7432 14.7483 -1.41073 0 0 0 
58 1 1 21.2871 15.7429 -0.134108 0 0 0 
55 1 1 24.9231 15.508 0.97196 0 0 0 
51 3 1 33.9498 17.5881 -4.83146 0 0 0 
50 2 1 31.3019 18.5468 -2.22846 0 0 0 
45 3 1 38.3606 23.7117 -2.02129 0 0 0 
42 3 1 40.6524 13.7245 9.96339 0 0 0 
138 3 1 -65.5552 -16.5853 -3.44222 0 0 0 
137 2 1 -62.5507 -18.8199 -3.00191 0 0 0 
132 3 1 -61.4393 -16.7129 3.48626 0 0 0 
129 3 1 -56.7163 -11.4325 3.95931 0 0 0 
131 2 1 -57.7475 -16.1375 2.64541 0 0 0 
128 2 1 -53.7916 -13.5821 5.27041 0 0 0 
117 3 1 -37.7801 -17.3272 9.19462 0 0 0 
114 3 1 -32.4449 -24.1417 4.13384 0 0 0 
116 2 1 -36.728 -17.9616 5.84767 0 0 0 
113 2 1 -31.9219 -20.5367 3.13376 0 0 0 
127 1 1 -50.7655 -15.768 3.72499 0 0 0 
130 1 1 -54.004 -16.9074 1.76883 0 0 0 
124 1 1 -46.9114 -15.5656 4.3418 0 0 0 
121 1 1 -43.1533 -16.0619 3.58182 0 0 0 
119 2 1 -41.5756 -15.2664 -0.868429 0 0 0 
118 1 1 -39.5803 -16.4797 2.38486 0 0 0 
115 1 1 -35.7123 -17.143 1.97983 0 0 0 
112 1 1 -32.0289 -17.4251 0.485139 0 0 0 
109 1 1 -29.2777 -16.3748 -1.86114 0 0 0 
111 3 1 -25.2372 -20.7952 2.77748 0 0 0 
110 2 1 -27.884 -19.1857 0.647663 0 0 0 
98 2 1 -20.9303 -11.1853 -0.340453 0 0 0 
96 3 1 -16.3331 -10.3871 5.06831 0 0 0 
99 3 1 -20.9277 -12.6356 3.24319 0 0 0 
95 2 1 -15.5462 -10.273 1.74799 0 0 0 
90 3 1 -12.1071 -2.17068 4.38094 0 0 0 
89 2 1 -10.4037 -1.87682 1.33035 0 0 0 
84 3 1 2.16356 -4.92869 -6.17098 0 0 0 
83 2 1 -0.894049 -2.62418 -5.83514 0 0 0 
72 3 1 7.30115 3.53085 -4.4089 0 0 0 
63 3 1 18.9352 8.03093 -2.00148 0 0 0 
57 3 1 23.3582 9.00875 2.83625 0 0 0 
48 3 1 31.5191 14.6351 8.53238 0 0 0 
56 2 1 22.8778 12.5451 2.98152 0 0 0 
53 2 1 27.2608 12.7115 3.93293 0 0 0 
54 3 1 27.0906 11.7302 7.55055 0 0 0 
52 1 1 28.7916 15.8403 1.52161 0 0 0 
47 2 1 33.7414 15.1047 5.53193 0 0 0 
49 1 1 32.4546 16.7723 1.30471 0 0 0 
46 1 1 36.0153 17.0199 2.8403 0 0 0 
41 2 1 40.3766 14.6892 6.65611 0 0 0 
44 2 1 38.7467 20.626 0.279229 0 0 0 
43 1 1 39.602 18.186 3.45195 0 0 0 
40 1 1 42.9042 17.4392 5.46432 0 0 0 
38 2 1 45.2389 20.886 4.77181 0 0 0 
37 1 1 46.5082 17.8825 6.90184 0 0 0 
36 3 1 49.7391 10.5762 6.95619 0 0 0 
35 2 1 49.58 14.3957 6.79556 0 0 0 
29 2 1 55.733 14.2861 11.6883 0 0 0 
34 1 1 49.8558 17.9743 8.77827 0 0 0 
31 1 1 53.1246 18.6829 10.6364 0 0 0 
33 3 1 55.0736 24.5696 7.09174 0 0 0 
32 2 1 52.501 22.0872 8.50512 0 0 0 
24 3 1 58.8431 26.3009 16.4752 0 0 0 
6 3 1 74.5351 32.6301 9.77676 0 0 0 
30 3 1 56.1855 10.4521 11.662 0 0 0 
28 1 1 56.7645 18.215 12.1164 0 0 0 
26 2 1 61.0155 16.566 10.4706 0 0 0 
27 3 1 60.2131 15.7491 7.08893 0 0 0 
39 3 1 45.614 23.4341 2.07154 0 0 0 
25 1 1 60.2176 19.1062 13.5312 0 0 0 
23 2 1 59.9971 22.9847 16.1346 0 0 0 
22 1 1 63.2589 20.9742 14.9881 0 0 0 
20 2 1 64.5845 25.4349 16.4676 0 0 0 
19 1 1 66.9495 22.1542 15.7439 0 0 0 
17 2 1 69.7193 18.8119 17.173 0 0 0 
12 3 1 77.7038 18.8383 17.4677 0 0 0 
11 2 1 77.6294 22.6586 17.4481 0 0 0 
18 3 1 67.9581 15.8118 16.286 0 0 0 
16 1 1 70.8122 22.5797 16.2323 0 0 0 
21 3 1 63.0526 28.8752 15.6946 0 0 0 
15 3 1 68.5988 28.8498 14.0487 0 0 0 
14 2 1 71.1998 27.1952 15.3233 0 0 0 
13 1 1 74.0288 24.6924 15.8664 0 0 0 
10 1 1 77.5346 26.0933 15.2921 0 0 0 
8 2 1 81.8214 28.862 17.8443 0 0 0 
7 1 1 80.1397 28.7408 14.0909 0 0 0 
5 2 1 77.5592 32.0425 11.5454 0 0 0 
4 1 1 81.4068 30.874 11.0392 0 0 0 
2 2 1 86.1049 30.8583 10.1083 0 0 0 
1 1 1 83.291 32.4337 7.88068 0 0 0 
9 3 1 84.5822 27.9923 20.0489 0 0 0 
3 3 1 87.1312 27.9179 11.7253 0 0 0 
ITEM: TIMESTEP
400000
ITEM: NUMBER OF ATOMS
162
ITEM: BOX BOUNDS pp pp pp
-170.089 170.089
-170.089 170.089
-170.089 170.089
ITEM: ATOMS id type mol x y z ix iy iz 
162 3 1 -51.5918 -55.9131 -15.65 0 0 0 
153 3 1 -49.2067 -48.6454 -12.5704 0 0 0 
104 2 1 -24.1095 2.10415 -20.7532 0 0 0 
105 3 1 -25.0429 -1.23641 -21.6328 0 0 0 
102 3 1 -25.5752 7.31225 -25.4329 0 0 0 
108 3 1 -30.1261 9.10867 -13.7987 0 0 0 
103 1 1 -23.8153 5.89665 -19.2344 0 0 0 
101 2 1 -22.4449 7.73474 -23.381 0 0 0 
96 3 1 -18.1734 14.3833 -26.8358 0 0 0 
94 1 1 -14.0143 10.7201 -21.7894 0 0 0 
95 2 1 -15.696 11.9792 -25.1986 0 0 0 
100 1 1 -20.8559 8.55683 -20.2293 0 0 0 
97 1 1 -17.5721 10.6431 -20.472 0 0 0 
91 1 1 -10.1637 10.4379 -22.3239 0 0 0 
93 3 1 -12.5958 15.2634 -26.988 0 0 0 
92 2 1 -10.9788 12.602 -25.0899 0 0 0 
89 2 1 -7.17174 11.6857 -25.2557 0 0 0 
86 2 1 -2.91045 11.5814 -19.7305 0 0 0 
90 3 1 -6.77409 14.2298 -27.639 0 0 0 
88 1 1 -6.30898 9.33973 -22.0662 0 0 0 
87 3 1 -0.719971 14.5265 -20.1966 0 0 0 
81 3 1 6.63647 11.1337 -22.2417 0 0 0 
161 2 1 -50.8971 -54.8127 -12.236 0 0 0 
160 1 1 -51.6699 -52.9251 -8.76376 0 0 0 
158 2 1 -53.696 -51.5101 -4.62961 0 0 0 
157 1 1 -51.8475 -49.3202 -7.61739 0 0 0 
152 2 1 -49.9727 -45.1114 -11.9765 0 0 0 
154 1 1 -51.5652 -45.4256 -7.25482 0 0 0 
151 1 1 -50.3594 -42.2662 -9.11684 0 0 0 
146 2 1 -51.6832 -37.5345 -14.4105 0 0 0 
147 3 1 -53.083 -40.6524 -15.4876 0 0 0 
148 1 1 -49.6757 -38.5465 -9.98821 0 0 0 
145 1 1 -49.5322 -35.0902 -11.8787 0 0 0 
142 1 1 -48.6621 -31.2595 -12.6801 0 0 0 
138 3 1 -54.4562 -25.1134 -12.1973 0 0 0 
137 2 1 -51.119 -24.6155 -14.0339 0 0 0 
136 1 1 -47.2464 -23.8333 -13.6145 0 0 0 
133 1 1 -45.7074 -20.4757 -14.4256 0 0 0 
132 3 1 -53.4027 -19.831 -14.6587 0 0 0 
129 3 1 -53.3641 -13.2424 -14.6996 0 0 0 
131 2 1 -49.7265 -19.1515 -15.853 0 0 0 
128 2 1 -50.0341 -13.5699 -16.2306 0 0 0 
123 3 1 -38.6239 -12.4359 -20.3605 0 0 0 
130 1 1 -46.2174 -16.8285 -15.9189 0 0 0 
122 2 1 -40.1889 -10.5089 -17.8061 0 0 0 
127 1 1 -45.9273 -13.1253 -16.5779 0 0 0 
126 3 1 -51.928 -9.16565 -19.5029 0 0 0 
124 1 1 -44.7391 -9.31253 -17.1049 0 0 0 
125 2 1 -48.6981 -8.60013 -18.0397 0 0 0 
121 1 1 -41.7583 -6.89188 -16.9698 0 0 0 
119 2 1 -41.6797 -2.52012 -19.0911 0 0 0 
120 3 1 -44.8098 -4.61197 -20.0361 0 0 0 
111 3 1 -30.8916 -3.40606 -22.545 0 0 0 
117 3 1 -33.428 -9.4244 -18.0104 0 0 0 
116 2 1 -34.8894 -6.43118 -16.3241 0 0 0 
118 1 1 -39.0668 -4.26359 -16.4827 0 0 0 
115 1 1 -35.614 -2.5601 -15.8453 0 0 0 
110 2 1 -29.6904 -1.55951 -19.6928 0 0 0 
112 1 1 -32.6257 -0.117558 -15.8017 0 0 0 
109 1 1 -29.7448 1.72777 -17.5123 0 0 0 
113 2 1 -33.366 0.539906 -11.8158 0 0 0 
114 3 1 -35.6102 2.4635 -9.89358 0 0 0 
106 1 1 -26.9035 4.03592 -17.9081 0 0 0 
107 2 1 -29.3578 5.81258 -15.0598 0 0 0 
99 3 1 -21.6185 16.7014 -18.3278 0 0 0 
98 2 1 -19.7935 13.7037 -18.7353 0 0 0 
78 3 1 10.1057 2.04034 -19.0995 0 0 0 
77 2 1 6.32166 1.83429 -18.2022 0 0 0 
72 3 1 5.63455 -2.4591 -8.04868 0 0 0 
79 1 1 3.90674 6.17564 -17.7443 0 0 0 
76 1 1 6.38343 4.67732 -15.1032 0 0 0 
73 1 1 8.36791 4.16942 -11.8786 0 0 0 
74 2 1 9.53494 8.06152 -12.6132 0 0 0 
85 1 1 -2.81602 7.77937 -21.0587 0 0 0 
83 2 1 -1.62416 2.5449 -19.1177 0 0 0 
82 1 1 0.441962 6.03098 -19.4734 0 0 0 
80 2 1 3.93314 9.04669 -20.4056 0 0 0 
84 3 1 -0.587489 0.117763 -16.8655 0 0 0 
75 3 1 11.3826 10.9611 -13.413 0 0 0 
159 3 1 -56.3541 -53.7179 -3.62554 0 0 0 
156 3 1 -56.5978 -45.4213 -1.89578 0 0 0 
155 2 1 -53.6081 -45.787 -4.22853 0 0 0 
150 3 1 -48.3977 -38.8366 -2.16392 0 0 0 
149 2 1 -48.9421 -39.2586 -6.02104 0 0 0 
143 2 1 -47.6156 -32.9777 -9.07622 0 0 0 