ITEM: TIMESTEP
0
ITEM: NUMBER OF ATOMS
198
ITEM: BOX BOUNDS pp pp pp
-181.856 181.856
-181.856 181.856
-181.856 181.856
ITEM: ATOMS id type mol x y z ix iy iz 
2 2 1 -22.4729 -23.4785 -112.994 0 0 0 
3 3 1 -25.9189 -24.1845 -111.752 0 0 0 
1 1 1 -19.0834 -23.4201 -114.865 0 0 0 
4 1 1 -18.4978 -22.6849 -111.347 0 0 0 
5 2 1 -14.9704 -23.6241 -112.245 0 0 0 
6 3 1 -11.3831 -24.595 -111.419 0 0 0 
8 2 1 -21.3018 -22.0082 -105.957 0 0 0 
9 3 1 -24.7479 -22.7141 -104.715 0 0 0 
7 1 1 -17.9123 -21.9497 -107.828 0 0 0 
10 1 1 -17.3268 -21.2146 -104.31 0 0 0 
11 2 1 -13.7993 -22.1538 -105.208 0 0 0 
12 3 1 -10.2121 -23.1246 -104.382 0 0 0 
15 3 1 -23.5768 -21.2438 -97.6781 0 0 0 
13 1 1 -16.7412 -20.4794 -100.792 0 0 0 
14 2 1 -20.1307 -20.5379 -98.9203 0 0 0 
17 2 1 -12.6282 -20.6834 -98.1709 0 0 0 
18 3 1 -9.04103 -21.6543 -97.3458 0 0 0 
16 1 1 -16.1557 -19.7443 -97.2732 0 0 0 
19 1 1 -15.5702 -19.0091 -93.7548 0 0 0 
20 2 1 -18.9597 -19.0676 -91.8835 0 0 0 
23 2 1 -11.4572 -19.2131 -91.1341 0 0 0 
21 3 1 -22.4058 -19.7735 -90.6412 0 0 0 
27 3 1 -21.2347 -18.3032 -83.6044 0 0 0 
22 1 1 -14.9846 -18.2739 -90.2364 0 0 0 
25 1 1 -14.3991 -17.5388 -86.718 0 0 0 
26 2 1 -17.7886 -17.5972 -84.8467 0 0 0 
28 1 1 -13.8136 -16.8036 -83.1996 0 0 0 
29 2 1 -10.2861 -17.7428 -84.0973 0 0 0 
24 3 1 -7.86996 -20.184 -90.309 0 0 0 
30 3 1 -6.6989 -18.7136 -83.2722 0 0 0 
31 1 1 -13.228 -16.0684 -79.6812 0 0 0 
32 2 1 -16.6176 -16.1269 -77.8099 0 0 0 
33 3 1 -20.0636 -16.8328 -76.5677 0 0 0 
34 1 1 -12.6425 -15.3333 -76.1628 0 0 0 
37 1 1 -12.057 -14.5981 -72.6444 0 0 0 
38 2 1 -15.4465 -14.6566 -70.7731 0 0 0 
35 2 1 -9.11506 -16.2724 -77.0605 0 0 0 
36 3 1 -5.52784 -17.2433 -76.2353 0 0 0 
39 3 1 -18.8926 -15.3625 -69.5309 0 0 0 
40 1 1 -11.4715 -13.8629 -69.126 0 0 0 
43 1 1 -10.8859 -13.1278 -65.6076 0 0 0 
44 2 1 -14.2754 -13.1863 -63.7363 0 0 0 
45 3 1 -17.7215 -13.8922 -62.4941 0 0 0 
46 1 1 -10.3004 -12.3926 -62.0892 0 0 0 
41 2 1 -7.944 -14.8021 -70.0237 0 0 0 
42 3 1 -4.35678 -15.773 -69.1985 0 0 0 
47 2 1 -6.77294 -13.3318 -62.9869 0 0 0 
48 3 1 -3.18572 -14.3027 -62.1617 0 0 0 
50 2 1 -13.1044 -11.7159 -56.6995 0 0 0 
51 3 1 -16.5505 -12.4218 -55.4573 0 0 0 
49 1 1 -9.71487 -11.6575 -58.5708 0 0 0 
52 1 1 -9.12934 -10.9223 -55.0524 0 0 0 
53 2 1 -5.60187 -11.8615 -55.9501 0 0 0 
54 3 1 -2.01466 -12.8323 -55.1249 0 0 0 
55 1 1 -8.54381 -10.1871 -51.534 0 0 0 
56 2 1 -11.9333 -10.2456 -49.6627 0 0 0 
57 3 1 -15.3794 -10.9515 -48.4205 0 0 0 
59 2 1 -4.43081 -10.3911 -48.9133 0 0 0 
60 3 1 -0.843596 -11.362 -48.0881 0 0 0 
62 2 1 -10.7623 -8.77528 -42.6259 0 0 0 
63 3 1 -14.2083 -9.4812 -41.3836 0 0 0 
58 1 1 -7.95828 -9.45196 -48.0156 0 0 0 
61 1 1 -7.37275 -8.7168 -44.4972 0 0 0 
64 1 1 -6.78722 -7.98163 -40.9788 0 0 0 
65 2 1 -3.25975 -8.92082 -41.8765 0 0 0 
66 3 1 0.327464 -9.89168 -41.0513 0 0 0 
69 3 1 -13.0373 -8.01088 -34.3468 0 0 0 
67 1 1 -6.20169 -7.24647 -37.4604 0 0 0 
68 2 1 -9.59121 -7.30495 -35.5891 0 0 0 
70 1 1 -5.61616 -6.51131 -33.942 0 0 0 
71 2 1 -2.08869 -7.45049 -34.8397 0 0 0 
73 1 1 -5.03063 -5.77614 -30.4236 0 0 0 
72 3 1 1.49853 -8.42135 -34.0145 0 0 0 
75 3 1 -11.8662 -6.54055 -27.31 0 0 0 
81 3 1 -10.6951 -5.07022 -20.2732 0 0 0 
74 2 1 -8.42014 -5.83463 -28.5523 0 0 0 
76 1 1 -4.4451 -5.04098 -26.9052 0 0 0 
77 2 1 -0.91763 -5.98017 -27.8029 0 0 0 
79 1 1 -3.85956 -4.30582 -23.3868 0 0 0 
80 2 1 -7.24908 -4.3643 -21.5155 0 0 0 
78 3 1 2.66959 -6.95103 -26.9778 0 0 0 
83 2 1 0.253431 -4.50984 -20.7661 0 0 0 
82 1 1 -3.27403 -3.57065 -19.8684 0 0 0 
85 1 1 -2.6885 -2.83549 -16.35 0 0 0 
86 2 1 -6.07802 -2.89397 -14.4787 0 0 0 
87 3 1 -9.52409 -3.5999 -13.2364 0 0 0 
88 1 1 -2.10297 -2.10033 -12.8316 0 0 0 
84 3 1 3.84065 -5.4807 -19.9409 0 0 0 
89 2 1 1.42449 -3.03951 -13.7293 0 0 0 
90 3 1 5.01171 -4.01037 -12.9041 0 0 0 
91 1 1 -1.51744 -1.36516 -9.31319 0 0 0 
92 2 1 -4.90696 -1.42365 -7.44193 0 0 0 
93 3 1 -8.35303 -2.12957 -6.19964 0 0 0 
94 1 1 -0.931911 -0.629998 -5.79479 0 0 0 
95 2 1 2.59555 -1.56918 -6.69249 0 0 0 
96 3 1 6.18277 -2.54004 -5.86735 0 0 0 
97 1 1 -0.34638 0.105164 -2.27638 0 0 0 
98 2 1 -3.7359 0.046681 -0.405124 0 0 0 
99 3 1 -7.18197 -0.659241 0.837158 0 0 0 
101 2 1 3.76661 -0.098857 0.344313 0 0 0 
102 3 1 7.35383 -1.06972 1.16945 0 0 0 
104 2 1 -2.56484 1.51701 6.63168 0 0 0 
105 3 1 -6.01091 0.811085 7.87396 0 0 0 
100 1 1 0.23915 0.840328 1.24202 0 0 0 
103 1 1 0.82468 1.57549 4.76042 0 0 0 
106 1 1 1.41021 2.31066 8.27882 0 0 0 
107 2 1 4.93768 1.37147 7.38111 0 0 0 
108 3 1 8.52489 0.400609 8.20626 0 0 0 
110 2 1 -1.39377 2.98733 13.6685 0 0 0 
111 3 1 -4.83985 2.28141 14.9108 0 0 0 
109 1 1 1.99574 3.04582 11.7972 0 0 0 
112 1 1 2.58127 3.78098 15.3156 0 0 0 
113 2 1 6.10874 2.8418 14.4179 0 0 0 
114 3 1 9.69595 1.87094 15.2431 0 0 0 
115 1 1 3.1668 4.51615 18.834 0 0 0 
116 2 1 -0.222713 4.45766 20.7053 0 0 0 
117 3 1 -3.66878 3.75174 21.9476 0 0 0 
123 3 1 -2.49772 5.22207 28.9844 0 0 0 
118 1 1 3.75233 5.25131 22.3524 0 0 0 
119 2 1 7.2798 4.31212 21.4547 0 0 0 
121 1 1 4.33786 5.98647 25.8708 0 0 0 
122 2 1 0.948347 5.92799 27.7421 0 0 0 
124 1 1 4.9234 6.72164 29.3892 0 0 0 
125 2 1 8.45086 5.78245 28.4915 0 0 0 
120 3 1 10.867 3.34126 22.2798 0 0 0 
126 3 1 12.0381 4.81159 29.3167 0 0 0 
129 3 1 -1.32666 6.69239 36.0212 0 0 0 
127 1 1 5.50893 7.4568 32.9076 0 0 0 
128 2 1 2.11941 7.39832 34.7789 0 0 0 
130 1 1 6.09446 8.19196 36.426 0 0 0 
131 2 1 9.62192 7.25278 35.5283 0 0 0 
133 1 1 6.67999 8.92713 39.9444 0 0 0 
132 3 1 13.2091 6.28192 36.3535 0 0 0 
135 3 1 -0.155599 8.16272 43.058 0 0 0 
134 2 1 3.29047 8.86864 41.8157 0 0 0 
136 1 1 7.26552 9.66229 43.4628 0 0 0 
141 3 1 1.01546 9.63305 50.0948 0 0 0 
137 2 1 10.793 8.72311 42.5651 0 0 0 
138 3 1 14.3802 7.75224 43.3903 0 0 0 
144 3 1 15.5513 9.22257 50.4271 0 0 0 
139 1 1 7.85105 10.3974 46.9812 0 0 0 
140 2 1 4.46153 10.339 48.8525 0 0 0 
142 1 1 8.43658 11.1326 50.4996 0 0 0 
143 2 1 11.964 10.1934 49.6019 0 0 0 
145 1 1 9.02211 11.8678 54.018 0 0 0 
146 2 1 5.63259 11.8093 55.8893 0 0 0 
147 3 1 2.18652 11.1034 57.1316 0 0 0 
148 1 1 9.60764 12.6029 57.5364 0 0 0 
149 2 1 13.1351 11.6638 56.6387 0 0 0 
150 3 1 16.7223 10.6929 57.4639 0 0 0 
152 2 1 6.80365 13.2796 62.9261 0 0 0 
153 3 1 3.35758 12.5737 64.1684 0 0 0 
158 2 1 7.97472 14.75 69.9629 0 0 0 
151 1 1 10.1932 13.3381 61.0548 0 0 0 
154 1 1 10.7787 14.0733 64.5732 0 0 0 
155 2 1 14.3062 13.1341 63.6755 0 0 0 
156 3 1 17.8934 12.1632 64.5007 0 0 0 
157 1 1 11.3642 14.8084 68.0916 0 0 0 
161 2 1 15.4772 14.6044 70.7123 0 0 0 
159 3 1 4.52865 14.044 71.2052 0 0 0 
164 2 1 9.14578 16.2203 76.9997 0 0 0 
165 3 1 5.69971 15.5144 78.242 0 0 0 
160 1 1 11.9498 15.5436 71.61 0 0 0 
162 3 1 19.0644 13.6335 71.5375 0 0 0 
163 1 1 12.5353 16.2788 75.1284 0 0 0 
166 1 1 13.1208 17.0139 78.6468 0 0 0 
167 2 1 16.6483 16.0747 77.7491 0 0 0 
168 3 1 20.2355 15.1039 78.5743 0 0 0 
171 3 1 6.87077 16.9847 85.2788 0 0 0 
169 1 1 13.7064 17.7491 82.1652 0 0 0 
170 2 1 10.3168 17.6906 84.0365 0 0 0 
172 1 1 14.2919 18.4842 85.6836 0 0 0 
173 2 1 17.8194 17.5451 84.7859 0 0 0 
175 1 1 14.8774 19.2194 89.202 0 0 0 
174 3 1 21.4066 16.5742 85.6111 0 0 0 
177 3 1 8.04183 18.455 92.3156 0 0 0 
183 3 1 9.21289 19.9253 99.3524 0 0 0 
176 2 1 11.4879 19.1609 91.0733 0 0 0 
178 1 1 15.4629 19.9546 92.7204 0 0 0 
179 2 1 18.9904 19.0154 91.8227 0 0 0 
180 3 1 22.5776 18.0445 92.6479 0 0 0 
186 3 1 23.7487 19.5149 99.6847 0 0 0 
181 1 1 16.0485 20.6897 96.2388 0 0 0 
182 2 1 12.659 20.6313 98.1101 0 0 0 
184 1 1 16.634 21.4249 99.7572 0 0 0 
185 2 1 20.1615 20.4857 98.8595 0 0 0 
187 1 1 17.2195 22.1601 103.276 0 0 0 
188 2 1 13.83 22.1016 105.147 0 0 0 
189 3 1 10.384 21.3957 106.389 0 0 0 
190 1 1 17.8051 22.8952 106.794 0 0 0 
193 1 1 18.3906 23.6304 110.312 0 0 0 
191 2 1 21.3325 21.956 105.896 0 0 0 
192 3 1 24.9198 20.9852 106.721 0 0 0 
194 2 1 15.0011 23.5719 112.184 0 0 0 
195 3 1 11.555 22.866 113.426 0 0 0 
196 1 1 18.9761 24.3656 113.831 0 0 0 
197 2 1 22.5036 23.4264 112.933 0 0 0 
198 3 1 26.0908 22.4555 113.758 0 0 0 
ITEM: TIMESTEP
100000
ITEM: NUMBER OF ATOMS
198
ITEM: BOX BOUNDS pp pp pp
-181.856 181.856
-181.856 181.856
-181.856 181.856
ITEM: ATOMS id type mol x y z ix iy iz 
24 3 1 -11.395 -12.8666 -77.3979 0 0 0 
33 3 1 -13.7569 -4.31489 -80.2958 0 0 0 
30 3 1 -9.56127 -7.30186 -77.292 0 0 0 
12 3 1 -16.7584 -32.0606 -73.1761 0 0 0 
11 2 1 -14.295 -30.1608 -71.0531 0 0 0 
16 1 1 -12.6916 -22.4525 -70.412 0 0 0 
17 2 1 -10.2605 -19.4825 -71.7939 0 0 0 
18 3 1 -8.33637 -16.1531 -71.4387 0 0 0 
19 1 1 -14.0878 -18.8546 -70.1192 0 0 0 
22 1 1 -14.7965 -15.1472 -70.8008 0 0 0 
25 1 1 -15.2452 -11.3044 -71.0611 0 0 0 
23 2 1 -12.5109 -13.7198 -73.9083 0 0 0 
28 1 1 -15.1547 -7.75483 -72.4557 0 0 0 
26 2 1 -17.2004 -9.00946 -68.2286 0 0 0 
29 2 1 -12.6447 -7.2615 -75.7471 0 0 0 
31 1 1 -15.4335 -3.92221 -72.898 0 0 0 
32 2 1 -14.4248 -3.2091 -76.8597 0 0 0 
34 1 1 -15.5677 -0.16292 -72.883 0 0 0 
35 2 1 -15.8999 1.75032 -76.5795 0 0 0 
36 3 1 -17.3943 4.52223 -78.2656 0 0 0 
5 2 1 -5.18269 -34.1771 -73.0606 0 0 0 
6 3 1 -3.90309 -33.2209 -76.1001 0 0 0 
1 1 1 -3.23306 -38.453 -67.899 0 0 0 
3 3 1 -9.58856 -40.1327 -63.8831 0 0 0 
2 2 1 -6.42647 -38.8318 -65.4292 0 0 0 
4 1 1 -5.56736 -35.6027 -69.3231 0 0 0 
8 2 1 -5.30665 -29.2216 -69.8736 0 0 0 
7 1 1 -7.5905 -32.4035 -69.6982 0 0 0 
9 3 1 -2.92959 -26.5835 -71.3833 0 0 0 
13 1 1 -12.0654 -26.3779 -70.3279 0 0 0 
15 3 1 -19.2878 -26.5594 -70.4798 0 0 0 
14 2 1 -15.8878 -25.844 -71.2897 0 0 0 
10 1 1 -10.3967 -29.8912 -70.1333 0 0 0 
20 2 1 -17.211 -18.5109 -67.5275 0 0 0 
21 3 1 -18.3429 -19.6235 -64.2812 0 0 0 
27 3 1 -17.9396 -6.96214 -65.3896 0 0 0 
46 1 1 -9.94046 9.69486 -63.7446 0 0 0 
43 1 1 -11.11 8.21695 -67.096 0 0 0 
44 2 1 -13.686 8.85546 -64.0548 0 0 0 
38 2 1 -15.8848 6.88792 -73.0615 0 0 0 
39 3 1 -16.7269 9.53552 -75.7119 0 0 0 
37 1 1 -14.7577 3.30971 -71.6165 0 0 0 
42 3 1 -11.5264 11.4454 -75.1761 0 0 0 
41 2 1 -11.328 9.59946 -71.9017 0 0 0 
47 2 1 -6.53572 11.7464 -62.4966 0 0 0 
40 1 1 -12.7598 6.18576 -69.9911 0 0 0 
48 3 1 -2.83761 11.3741 -62.2665 0 0 0 
45 3 1 -15.983 7.9789 -61.3613 0 0 0 
49 1 1 -10.4469 10.3637 -60.06 0 0 0 
50 2 1 -13.0455 9.26628 -57.1765 0 0 0 
51 3 1 -16.2144 9.41148 -55.3259 0 0 0 
52 1 1 -9.32333 11.9416 -56.6745 0 0 0 
55 1 1 -8.08117 11.8658 -52.9794 0 0 0 
53 2 1 -8.93177 15.8293 -55.5562 0 0 0 
56 2 1 -6.39379 14.7143 -50.5578 0 0 0 
54 3 1 -6.17005 18.3715 -55.1105 0 0 0 
69 3 1 -13.8975 6.7715 -35.4336 0 0 0 
62 2 1 -6.02164 11.9333 -42.001 0 0 0 
58 1 1 -7.64042 10.5135 -49.2638 0 0 0 
59 2 1 -7.80479 6.55534 -48.9111 0 0 0 
61 1 1 -7.14864 9.72382 -45.4415 0 0 0 
60 3 1 -8.26002 2.79932 -48.4432 0 0 0 
57 3 1 -4.31768 17.5601 -49.0699 0 0 0 
64 1 1 -7.25585 7.93608 -42.1327 0 0 0 
63 3 1 -4.12096 14.7242 -40.1238 0 0 0 
68 2 1 -11.6383 5.00447 -37.3438 0 0 0 
71 2 1 -9.70405 2.92585 -32.2529 0 0 0 
70 1 1 -7.68218 5.16756 -34.8962 0 0 0 
73 1 1 -5.99198 5.16273 -31.4849 0 0 0 
72 3 1 -12.4356 0.625317 -33.7318 0 0 0 
65 2 1 -4.8339 8.97885 -39.8789 0 0 0 
67 1 1 -7.95278 6.33102 -38.6318 0 0 0 
66 3 1 -5.64979 10.1994 -36.302 0 0 0 
83 2 1 2.78131 0.967387 -21.0357 0 0 0 
81 3 1 2.46588 -2.35605 -25.2106 0 0 0 
84 3 1 5.4333 -1.1507 -21.1708 0 0 0 
77 2 1 -1.85611 0.312418 -28.9626 0 0 0 
79 1 1 -2.34037 2.66602 -25.0743 0 0 0 
76 1 1 -3.93298 3.75735 -28.4729 0 0 0 
80 2 1 1.13698 0.907465 -25.1392 0 0 0 
74 2 1 -5.71218 7.61566 -28.585 0 0 0 
82 1 1 -1.18549 1.63419 -21.485 0 0 0 
78 3 1 -1.76598 -3.59915 -29.0401 0 0 0 
75 3 1 -6.68784 8.84959 -25.0925 0 0 0 
91 1 1 -3.77414 0.089335 -10.7702 0 0 0 
88 1 1 -1.77595 0.252737 -14.0652 0 0 0 
87 3 1 5.60431 0.00662901 -15.5259 0 0 0 
86 2 1 2.27941 -0.637536 -16.1774 0 0 0 
89 2 1 1.07698 -0.788603 -11.2824 0 0 0 
90 3 1 3.1543 -3.04705 -8.90725 0 0 0 
93 3 1 -9.86464 4.16255 -12.966 0 0 0 
92 2 1 -7.47149 1.58576 -11.5639 0 0 0 
85 1 1 -0.998767 0.565283 -17.7469 0 0 0 
97 1 1 -6.24888 -1.34911 -3.70662 0 0 0 
94 1 1 -4.71803 -0.255586 -6.90112 0 0 0 
100 1 1 -7.55004 -1.80603 -0.146464 0 0 0 
96 3 1 -0.990364 3.92776 -2.14444 0 0 0 
95 2 1 -3.13242 1.40443 -3.87374 0 0 0 
99 3 1 -12.4508 -1.74073 -5.47435 0 0 0 
98 2 1 -9.47679 -3.0611 -4.17957 0 0 0 
101 2 1 -11.1759 -1.29182 1.6443 0 0 0 
105 3 1 -12.1009 -2.70938 8.40746 0 0 0 
103 1 1 -7.54068 -2.83339 3.66318 0 0 0 
104 2 1 -9.17124 -1.59182 6.53542 0 0 0 
106 1 1 -7.34456 -4.97231 6.8783 0 0 0 
107 2 1 -7.09366 -9.06365 6.31177 0 0 0 
108 3 1 -7.8579 -11.9776 4.74875 0 0 0 
102 3 1 -15.0722 -1.15872 1.88305 0 0 0 
114 3 1 -12.1471 -14.6792 14.5115 0 0 0 
116 2 1 -6.23145 -11.8676 18.9543 0 0 0 
117 3 1 -6.96882 -15.2421 19.2764 0 0 0 
111 3 1 -10.8594 -0.712471 15.3055 0 0 0 
110 2 1 -9.11054 -3.20087 13.1022 0 0 0 
109 1 1 -8.00745 -6.14413 10.5378 0 0 0 
112 1 1 -8.48802 -8.04922 13.9363 0 0 0 
115 1 1 -8.27714 -8.68923 17.7577 0 0 0 
118 1 1 -8.42273 -8.64552 21.6416 0 0 0 
113 2 1 -9.72788 -11.8297 13.9802 0 0 0 
122 2 1 -5.60702 -13.3166 26.3752 0 0 0 
123 3 1 -3.6516 -16.1766 25.0307 0 0 0 
129 3 1 -6.8003 -18.435 34.5833 0 0 0 
119 2 1 -10.0006 -6.15991 24.4122 0 0 0 
120 3 1 -10.8641 -5.42643 27.649 0 0 0 
125 2 1 -7.22895 -6.85516 31.5161 0 0 0 
121 1 1 -7.46411 -9.86039 25.1466 0 0 0 
124 1 1 -6.92324 -9.8604 28.8863 0 0 0 
127 1 1 -5.98525 -11.5191 32.3035 0 0 0 
128 2 1 -7.09251 -14.9928 33.8911 0 0 0 
126 3 1 -6.22374 -5.43334 35.0459 0 0 0 
131 2 1 -3.66333 -9.08373 38.5233 0 0 0 
132 3 1 -1.53879 -6.53123 37.5549 0 0 0 
130 1 1 -4.55854 -11.942 35.7533 0 0 0 
133 1 1 -2.90215 -13.0493 39.0658 0 0 0 
134 2 1 -4.77922 -16.0411 41.172 0 0 0 
135 3 1 -5.98739 -19.5673 42.1914 0 0 0 
141 3 1 5.46523 -14.9386 48.6495 0 0 0 
136 1 1 -0.971594 -12.3231 42.3683 0 0 0 
137 2 1 -1.4559 -15.2119 44.6775 0 0 0 
140 2 1 2.6932 -12.7192 47.6314 0 0 0 
139 1 1 0.893724 -10.5501 45.3338 0 0 0 
142 1 1 2.48666 -7.79077 47.6028 0 0 0 
138 3 1 1.16121 -17.969 44.5787 0 0 0 
144 3 1 8.05668 -10.8204 51.4222 0 0 0 
145 1 1 4.06827 -4.73793 49.37 0 0 0 
146 2 1 4.04126 -1.37144 47.2048 0 0 0 
143 2 1 5.28924 -8.76708 50.3647 0 0 0 
148 1 1 6.02336 -2.62285 52.1027 0 0 0 
151 1 1 7.5628 -1.43551 55.4752 0 0 0 
149 2 1 7.70923 0.470632 50.6869 0 0 0 
147 3 1 4.4387 -0.117164 43.7588 0 0 0 
150 3 1 7.53497 3.2657 48.3422 0 0 0 
158 2 1 10.1908 7.33308 60.4009 0 0 0 
159 3 1 11.2703 9.50227 57.7267 0 0 0 
153 3 1 10.0397 -7.8932 58.5023 0 0 0 
152 2 1 8.64562 -4.22911 58.3683 0 0 0 
155 2 1 8.56179 -0.84152 62.0658 0 0 0 
156 3 1 5.82919 -1.33792 64.3418 0 0 0 
154 1 1 8.99217 0.680701 58.3623 0 0 0 
161 2 1 13.2758 3.09649 67.481 0 0 0 
157 1 1 10.2434 3.33692 60.7791 0 0 0 
160 1 1 11.9452 4.62429 63.9647 0 0 0 
163 1 1 13.4854 7.65936 65.9736 0 0 0 
166 1 1 15.31 9.74338 68.7481 0 0 0 
174 3 1 14.0904 21.3916 73.0334 0 0 0 
173 2 1 15.9894 18.479 73.3644 0 0 0 
164 2 1 13.5555 11.7249 65.2188 0 0 0 
165 3 1 12.9625 15.2496 65.1167 0 0 0 
169 1 1 17.1261 12.3376 71.0983 0 0 0 
176 2 1 19.4585 22.162 74.5182 0 0 0 
177 3 1 18.5687 25.2853 72.5812 0 0 0 
162 3 1 15.9212 3.05366 70.0642 0 0 0 
168 3 1 18.1435 5.37903 74.0223 0 0 0 
167 2 1 16.4193 7.80911 72.126 0 0 0 
170 2 1 19.0398 11.0116 74.3744 0 0 0 
172 1 1 18.5561 15.367 72.7628 0 0 0 
171 3 1 19.3484 8.80104 77.574 0 0 0 
175 1 1 20.6862 18.2457 74.4167 0 0 0 
178 1 1 23.6041 19.9034 76.3802 0 0 0 
179 2 1 26.7205 17.3608 77.0612 0 0 0 
181 1 1 26.4917 21.7511 77.8902 0 0 0 
182 2 1 26.3499 25.7569 78.2342 0 0 0 
184 1 1 29.9594 22.5985 79.555 0 0 0 
183 3 1 26.9898 29.4053 77.4132 0 0 0 
187 1 1 32.6203 25.125 80.9994 0 0 0 
180 3 1 28.3086 14.7711 79.2362 0 0 0 
186 3 1 35.4531 17.3875 78.8433 0 0 0 
185 2 1 33.0018 19.7856 79.7875 0 0 0 
188 2 1 35.5686 23.3064 83.4129 0 0 0 
190 1 1 34.878 28.3019 81.5903 0 0 0 
193 1 1 37.6557 30.7121 82.4993 0 0 0 
189 3 1 37.4225 22.3872 86.2993 0 0 0 
194 2 1 40.1107 29.4924 85.5766 0 0 0 
196 1 1 40.2227 33.6 82.9866 0 0 0 
195 3 1 40.7083 26.8446 88.0951 0 0 0 
191 2 1 33.6313 31.2311 80.0009 0 0 0 
192 3 1 32.5709 33.2982 77.3199 0 0 0 
198 3 1 39.7036 41.1254 81.1551 0 0 0 
197 2 1 40.1884 37.5922 82.7106 0 0 0 
ITEM: TIMESTEP
200000
ITEM: NUMBER OF ATOMS
198
ITEM: BOX BOUNDS pp pp pp
-181.856 181.856
-181.856 181.856
-181.856 181.856
ITEM: ATOMS id type mol x y z ix iy iz 
6 3 1 15.7249 -27.1532 -68.3506 0 0 0 
10 1 1 8.87358 -23.5468 -68.1735 0 0 0 
11 2 1 11.0052 -22.7832 -71.1201 0 0 0 
16 1 1 7.49866 -16.0318 -68.6703 0 0 0 
17 2 1 4.75156 -14.5006 -66.0385 0 0 0 
19 1 1 7.31253 -12.3807 -69.5415 0 0 0 
18 3 1 1.21532 -15.2191 -64.7842 0 0 0 
13 1 1 8.33797 -19.8195 -68.7591 0 0 0 
12 3 1 12.0577 -20.8499 -73.8855 0 0 0 
14 2 1 11.9333 -18.4313 -69.3879 0 0 0 
15 3 1 15.1282 -17.3434 -69.1835 0 0 0 
22 1 1 5.98649 -8.90337 -70.3622 0 0 0 
23 2 1 5.19524 -7.71388 -74.1647 0 0 0 
24 3 1 3.45404 -7.66822 -77.6366 0 0 0 
26 2 1 3.51318 -2.37356 -70.6955 0 0 0 
27 3 1 3.04403 1.00542 -71.8134 0 0 0 
1 1 1 10.5436 -33.4429 -62.3436 0 0 0 
3 3 1 9.54207 -28.2103 -56.9844 0 0 0 
8 2 1 6.99796 -24.4764 -64.1349 0 0 0 
4 1 1 10.1687 -30.3814 -64.7692 0 0 0 
2 2 1 10.599 -30.2503 -59.9676 0 0 0 
7 1 1 9.27945 -26.8462 -66.3036 0 0 0 
5 2 1 12.9106 -29.2329 -67.3302 0 0 0 
9 3 1 4.5621 -23.7899 -61.727 0 0 0 
30 3 1 5.66214 -1.73996 -60.0477 0 0 0 
29 2 1 3.71241 -2.82011 -62.8924 0 0 0 
25 1 1 4.48631 -5.45668 -69.2351 0 0 0 
28 1 1 3.17035 -2.8562 -66.764 0 0 0 
21 3 1 12.9542 -8.32375 -71.8312 0 0 0 
20 2 1 10.2208 -9.71154 -70.2276 0 0 0 
38 2 1 -3.76492 8.3332 -63.7782 0 0 0 
34 1 1 -0.0929866 2.76925 -62.8844 0 0 0 
32 2 1 2.10432 3.8493 -67.1139 0 0 0 
31 1 1 1.64203 0.330589 -65.2527 0 0 0 
33 3 1 4.31934 6.63786 -67.4644 0 0 0 
39 3 1 -1.68554 11.046 -64.2281 0 0 0 
48 3 1 -7.9265 8.05076 -46.3891 0 0 0 
47 2 1 -8.20932 9.88206 -49.6041 0 0 0 
37 1 1 -2.38568 5.45158 -61.2726 0 0 0 
42 3 1 -7.34177 4.74971 -52.1368 0 0 0 
43 1 1 -6.14112 9.67197 -56.4158 0 0 0 
41 2 1 -5.75247 5.47145 -55.3883 0 0 0 
40 1 1 -4.38648 7.32355 -58.6827 0 0 0 
35 2 1 0.235987 2.14726 -58.9429 0 0 0 
36 3 1 0.628735 0.200989 -55.8397 0 0 0 
46 1 1 -8.42425 10.9538 -53.5524 0 0 0 
44 2 1 -7.53517 13.2837 -57.3386 0 0 0 
45 3 1 -8.45536 16.7647 -56.2148 0 0 0 
57 3 1 -18.0024 21.789 -44.8893 0 0 0 
54 3 1 -13.7451 22.6426 -48.599 0 0 0 
53 2 1 -14.2042 19.1265 -48.5312 0 0 0 
49 1 1 -10.8996 13.4417 -51.6611 0 0 0 
50 2 1 -13.4418 15.6043 -53.198 0 0 0 
52 1 1 -12.7 15.4208 -48.8228 0 0 0 
55 1 1 -14.3638 15.8145 -45.2015 0 0 0 
56 2 1 -17.7009 18.3493 -45.3264 0 0 0 
58 1 1 -15.9337 15.4536 -41.5414 0 0 0 
51 3 1 -15.3252 17.0345 -55.7665 0 0 0 
69 3 1 -22.4959 3.85131 -37.6376 0 0 0 
68 2 1 -20.7016 4.94046 -34.8898 0 0 0 
67 1 1 -20.78 8.70969 -33.3613 0 0 0 
64 1 1 -19.3294 11.6875 -35.4558 0 0 0 
65 2 1 -22.1958 13.038 -33.0129 0 0 0 
59 2 1 -17.1493 18.7326 -39.4391 0 0 0 
62 2 1 -17.5609 15.9838 -34.5404 0 0 0 
61 1 1 -17.516 13.9602 -38.0523 0 0 0 
60 3 1 -19.3303 20.2375 -36.6418 0 0 0 
63 3 1 -16.583 16.7886 -30.996 0 0 0 
78 3 1 -25.7787 -2.53208 -21.8967 0 0 0 
77 2 1 -24.5638 0.773223 -22.4745 0 0 0 
75 3 1 -22.7372 -1.85586 -27.6348 0 0 0 
74 2 1 -24.4752 1.52064 -27.1972 0 0 0 
76 1 1 -23.8387 4.04851 -23.2449 0 0 0 
70 1 1 -22.1118 7.35496 -30.0465 0 0 0 
73 1 1 -23.0356 5.22896 -26.8792 0 0 0 
71 2 1 -21.9819 10.1708 -27.1463 0 0 0 
72 3 1 -20.3102 11.6882 -23.9496 0 0 0 
66 3 1 -25.7761 13.6477 -32.0032 0 0 0 
81 3 1 -24.3973 -2.88859 -16.6289 0 0 0 
80 2 1 -25.6086 0.612449 -17.8738 0 0 0 
84 3 1 -25.5687 -1.25065 -11.3754 0 0 0 
83 2 1 -23.8459 1.49149 -12.9585 0 0 0 
79 1 1 -24.3052 4.13768 -19.3309 0 0 0 
82 1 1 -24.3494 4.64768 -15.5039 0 0 0 
86 2 1 -26.7942 9.0933 -10.7315 0 0 0 
85 1 1 -25.0196 5.86679 -11.9723 0 0 0 
87 3 1 -27.5774 10.9696 -7.59566 0 0 0 
89 2 1 -24.1574 3.00524 -5.62257 0 0 0 
90 3 1 -21.6862 2.04521 -3.05166 0 0 0 
88 1 1 -25.6475 5.62078 -8.04883 0 0 0 
91 1 1 -26.9501 6.68902 -4.48504 0 0 0 
94 1 1 -26.6361 6.48704 -0.741049 0 0 0 
92 2 1 -29.254 9.65511 -3.36676 0 0 0 
95 2 1 -28.5353 3.48917 1.42816 0 0 0 
93 3 1 -32.4735 11.4317 -2.40305 0 0 0 
97 1 1 -25.9132 7.45773 2.87481 0 0 0 
100 1 1 -25.1434 7.59974 6.66475 0 0 0 
101 2 1 -22.0601 5.56833 8.56334 0 0 0 
103 1 1 -24.804 8.67064 10.4698 0 0 0 
98 2 1 -26.9333 11.2187 3.50187 0 0 0 
96 3 1 -31.5883 1.65327 1.74016 0 0 0 
102 3 1 -18.5305 5.75979 8.58529 0 0 0 
99 3 1 -26.8549 14.7824 2.73477 0 0 0 
108 3 1 -28.3748 8.33242 19.1098 0 0 0 
106 1 1 -24.6804 8.84994 14.3783 0 0 0 
107 2 1 -26.4191 6.52897 16.3817 0 0 0 
109 1 1 -24.3592 10.0629 18.0912 0 0 0 
104 2 1 -25.1046 12.3277 11.3576 0 0 0 
110 2 1 -22.0662 13.3643 18.8906 0 0 0 
105 3 1 -24.9646 14.6692 8.83877 0 0 0 
111 3 1 -19.6975 15.5467 20.9019 0 0 0 
112 1 1 -24.5066 10.7585 21.8655 0 0 0 
116 2 1 -25.9869 11.8973 29.0083 0 0 0 
113 2 1 -28.0742 10.5351 24.028 0 0 0 
117 3 1 -29.0431 10.8709 31.0497 0 0 0 
114 3 1 -30.2546 12.4632 25.8988 0 0 0 
115 1 1 -23.8747 11.4459 25.5771 0 0 0 
118 1 1 -21.5537 11.4222 28.7489 0 0 0 
120 3 1 -24.6601 13.9308 35.126 0 0 0 
128 2 1 -10.0184 3.20298 32.1273 0 0 0 
129 3 1 -9.27925 -0.16281 30.7972 0 0 0 
134 2 1 -5.50715 -0.227143 37.3426 0 0 0 
135 3 1 -4.72804 -3.55944 38.2252 0 0 0 
138 3 1 2.41337 -1.92696 39.5851 0 0 0 
137 2 1 -1.00354 -0.309605 39.5509 0 0 0 
144 3 1 2.79044 -0.109436 48.9049 0 0 0 
143 2 1 3.67597 1.2233 45.5149 0 0 0 
119 2 1 -22.4044 13.2544 32.2401 0 0 0 
123 3 1 -16.6446 14.9444 36.6226 0 0 0 
121 1 1 -18.4372 10.5981 30.9506 0 0 0 
124 1 1 -14.7253 9.06594 31.4311 0 0 0 
122 2 1 -17.0156 11.6594 34.6818 0 0 0 
125 2 1 -12.5748 11.4417 33.165 0 0 0 
127 1 1 -11.6464 7.11862 32.6264 0 0 0 
136 1 1 -2.77782 3.2846 38.9506 0 0 0 
130 1 1 -8.60617 5.77839 34.835 0 0 0 
133 1 1 -5.74608 3.74936 36.5983 0 0 0 
147 3 1 12.1779 7.18314 39.9932 0 0 0 
145 1 1 6.49879 5.63968 44.3447 0 0 0 
150 3 1 6.50157 6.21141 52.8364 0 0 0 
148 1 1 9.59235 6.18404 46.5766 0 0 0 
151 1 1 12.938 7.06047 48.2491 0 0 0 
154 1 1 16.5281 7.13094 49.3635 0 0 0 
149 2 1 9.12581 4.9074 50.476 0 0 0 
156 3 1 21.2496 12.3227 50.0847 0 0 0 
132 3 1 -5.32109 9.93905 40.3351 0 0 0 
126 3 1 -11.1036 14.9077 33.6417 0 0 0 
131 2 1 -6.44752 8.4205 37.0195 0 0 0 
139 1 1 0.227485 4.62766 40.9085 0 0 0 
141 3 1 -1.52299 11.0421 43.5335 0 0 0 
140 2 1 0.582038 8.37534 42.2915 0 0 0 
142 1 1 3.22096 4.37138 42.9634 0 0 0 
146 2 1 9.32684 7.73682 42.4521 0 0 0 
153 3 1 16.331 12.9614 45.9483 0 0 0 
152 2 1 14.5562 10.8211 48.0377 0 0 0 
195 3 1 46.0104 -29.6361 54.4827 0 0 0 
183 3 1 40.2608 -20.2078 55.1937 0 0 0 
175 1 1 35.0112 -9.20857 57.6307 0 0 0 
176 2 1 36.3212 -11.323 54.2383 0 0 0 
178 1 1 37.6438 -11.9534 58.7317 0 0 0 
179 2 1 39.1308 -13.9531 55.5285 0 0 0 
177 3 1 35.2618 -13.2723 50.9873 0 0 0 
173 2 1 33.9894 -7.38925 53.1501 0 0 0 
174 3 1 32.3792 -7.69907 50.1075 0 0 0 
182 2 1 39.0215 -17.8895 57.7882 0 0 0 
180 3 1 40.0362 -14.2487 51.9948 0 0 0 
162 3 1 19.8174 -0.443082 60.1022 0 0 0 
161 2 1 19.9042 1.18706 56.5883 0 0 0 
164 2 1 26.0308 -2.1555 52.1909 0 0 0 
172 1 1 32.1888 -6.70749 56.7214 0 0 0 
166 1 1 26.2131 -1.82833 57.038 0 0 0 
163 1 1 23.9499 0.225988 54.6157 0 0 0 
167 2 1 26.876 -2.78166 60.9915 0 0 0 
169 1 1 29.2718 -4.30969 57.3915 0 0 0 
157 1 1 19.1286 5.2124 51.371 0 0 0 
165 3 1 27.065 -3.75695 49.0197 0 0 0 
160 1 1 21.316 2.65711 53.1813 0 0 0 
155 2 1 18.9036 9.58533 48.5808 0 0 0 
158 2 1 22.7925 7.02011 51.8575 0 0 0 
159 3 1 25.2206 9.16475 53.2809 0 0 0 
194 2 1 45.9849 -29.468 58.0224 0 0 0 
188 2 1 41.8639 -22.5735 66.9309 0 0 0 
185 2 1 40.3561 -18.8564 66.0414 0 0 0 
184 1 1 41.0275 -18.1189 62.0126 0 0 0 
189 3 1 42.0806 -24.0407 70.1964 0 0 0 
187 1 1 42.6878 -21.4273 63.1182 0 0 0 
190 1 1 44.2242 -24.9771 63.0172 0 0 0 
193 1 1 45.1171 -28.6339 61.788 0 0 0 
191 2 1 45.626 -26.7188 66.2829 0 0 0 
196 1 1 45.9702 -32.596 61.7779 0 0 0 
181 1 1 39.378 -14.9181 60.5243 0 0 0 
171 3 1 28.027 -8.01761 63.1447 0 0 0 
168 3 1 28.0563 -2.90589 64.7313 0 0 0 
170 2 1 30.447 -6.45114 60.7934 0 0 0 
198 3 1 41.5827 -34.0385 66.8113 0 0 0 
197 2 1 43.8255 -35.0078 64.2308 0 0 0 
186 3 1 38.2494 -20.0805 69.0675 0 0 0 
192 3 1 47.6656 -28.8095 68.4868 0 0 0 
ITEM: TIMESTEP
300000
ITEM: NUMBER OF ATOMS
198
ITEM: BOX BOUNDS pp pp pp
-181.856 181.856
-181.856 181.856
-181.856 181.856
ITEM: ATOMS id type mol x y z ix iy iz 
3 3 1 2.75629 29.8652 -71.6388 0 0 0 
15 3 1 -4.4421 13.5137 -65.0045 0 0 0 
14 2 1 -3.28034 15.2886 -62.2321 0 0 0 
9 3 1 2.25169 14.2468 -67.2874 0 0 0 
5 2 1 7.435 19.2005 -66.1972 0 0 0 
8 2 1 1.60303 17.9099 -66.3943 0 0 0 
10 1 1 1.79383 19.0939 -62.2744 0 0 0 
6 3 1 10.5841 17.5553 -64.7686 0 0 0 
4 1 1 5.79553 22.4732 -67.8637 0 0 0 
1 1 1 7.4738 24.963 -70.4225 0 0 0 
7 1 1 3.78154 21.0086 -64.8733 0 0 0 
2 2 1 4.64169 26.8388 -70.307 0 0 0 
21 3 1 -13.3497 13.4471 -54.6374 0 0 0 
18 3 1 -11.1447 15.8783 -60.4425 0 0 0 
22 1 1 -6.40705 13.3766 -51.4887 0 0 0 
19 1 1 -5.70644 14.7627 -55.0667 0 0 0 
20 2 1 -9.58679 13.6952 -54.225 0 0 0 
16 1 1 -3.78436 16.1523 -58.1434 0 0 0 
17 2 1 -7.57233 15.2204 -59.4101 0 0 0 
13 1 1 -1.1151 17.5551 -60.4008 0 0 0 
12 3 1 5.9927 17.4707 -56.4104 0 0 0 
11 2 1 3.44524 17.8825 -58.7729 0 0 0 
45 3 1 -26.6129 -3.83166 -41.3859 0 0 0 
34 1 1 -15.5476 6.76687 -41.0973 0 0 0 
31 1 1 -12.7671 8.54702 -43.1945 0 0 0 
28 1 1 -10.1142 9.75606 -45.6276 0 0 0 
24 3 1 -1.52162 10.0436 -48.7298 0 0 0 
29 2 1 -7.58359 7.92785 -43.0856 0 0 0 
30 3 1 -4.42385 7.89425 -41.3209 0 0 0 
32 2 1 -15.8249 10.9237 -42.2167 0 0 0 
33 3 1 -16.834 14.5899 -41.5123 0 0 0 
26 2 1 -11.2542 14.1362 -47.1216 0 0 0 
27 3 1 -13.6227 14.824 -49.8927 0 0 0 
23 2 1 -3.75164 13.1524 -48.5013 0 0 0 
25 1 1 -8.15093 11.7246 -48.4022 0 0 0 
54 3 1 -33.8331 -10.8063 -31.8129 0 0 0 
51 3 1 -31.9643 -2.50205 -30.8822 0 0 0 
44 2 1 -24.4719 -2.67859 -38.3983 0 0 0 
43 1 1 -21.5456 -1.83276 -35.9174 0 0 0 
49 1 1 -25.5584 -6.6347 -31.8711 0 0 0 
50 2 1 -29.2384 -5.14054 -30.8605 0 0 0 
47 2 1 -20.6739 -7.57847 -32.1717 0 0 0 
46 1 1 -22.8117 -4.69912 -33.8579 0 0 0 
48 3 1 -17.4344 -9.57771 -31.1402 0 0 0 
36 3 1 -21.969 9.69775 -38.4924 0 0 0 
39 3 1 -24.7407 4.69135 -37.0541 0 0 0 
38 2 1 -21.239 5.18254 -37.3579 0 0 0 
40 1 1 -19.6253 1.33283 -37.269 0 0 0 
41 2 1 -17.9084 0.200749 -33.9511 0 0 0 
42 3 1 -15.5227 0.630813 -30.9453 0 0 0 
35 2 1 -18.3613 9.04308 -39.1416 0 0 0 
37 1 1 -17.9372 4.28802 -39.1206 0 0 0 
60 3 1 -32.4582 -22.8471 -28.3287 0 0 0 
64 1 1 -28.8723 -21.8883 -21.0627 0 0 0 
63 3 1 -21.7171 -20.3394 -20.6924 0 0 0 
59 2 1 -31.2058 -19.6307 -27.5472 0 0 0 
55 1 1 -28.2178 -12.922 -28.0165 0 0 0 
61 1 1 -28.2482 -19.1439 -23.7223 0 0 0 
58 1 1 -28.7273 -16.7247 -26.6577 0 0 0 
56 2 1 -24.8747 -14.1204 -26.0012 0 0 0 
57 3 1 -21.276 -14.5785 -25.0819 0 0 0 
62 2 1 -25.2395 -18.8816 -21.2045 0 0 0 
53 2 1 -31.0469 -9.72018 -29.7306 0 0 0 
52 1 1 -27.1551 -9.58161 -29.848 0 0 0 
72 3 1 -30.3887 -33.8391 -14.009 0 0 0 
71 2 1 -29.1852 -30.678 -15.6505 0 0 0 
78 3 1 -25.0852 -39.2543 -10.7558 0 0 0 
77 2 1 -23.2244 -36.3223 -11.6236 0 0 0 
76 1 1 -23.0248 -32.3332 -12.0616 0 0 0 
66 3 1 -35.5459 -20.8316 -18.6782 0 0 0 
65 2 1 -32.2512 -22.9575 -18.9825 0 0 0 
70 1 1 -26.6166 -27.975 -16.888 0 0 0 
67 1 1 -27.4528 -25.047 -19.2887 0 0 0 
68 2 1 -23.411 -24.9975 -19.0176 0 0 0 
74 2 1 -22.1499 -27.8513 -12.0327 0 0 0 
73 1 1 -24.4617 -29.8154 -14.3918 0 0 0 
69 3 1 -19.6261 -24.214 -18.4911 0 0 0 
87 3 1 -23.4844 -43.3026 -2.87393 0 0 0 
86 2 1 -21.4016 -40.6366 -2.11781 0 0 0 
79 1 1 -21.0168 -33.3755 -8.98427 0 0 0 
83 2 1 -23.1002 -38.4029 -5.46588 0 0 0 
84 3 1 -26.4575 -38.6321 -3.62694 0 0 0 
82 1 1 -20.1692 -35.6288 -6.12279 0 0 0 
80 2 1 -18.0844 -31.2925 -6.95368 0 0 0 
85 1 1 -18.7484 -37.675 -3.06832 0 0 0 
88 1 1 -16.8832 -39.1634 -0.106643 0 0 0 
75 3 1 -20.9811 -26.4184 -8.84387 0 0 0 
81 3 1 -17.841 -28.3612 -4.78978 0 0 0 
90 3 1 -18.5126 -44.8881 3.22999 0 0 0 
89 2 1 -16.8546 -43.0123 0.592928 0 0 0 
92 2 1 -13.2232 -42.4924 5.32395 0 0 0 
93 3 1 -13.6097 -45.9095 5.67091 0 0 0 
95 2 1 -9.43917 -40.8696 7.81404 0 0 0 
91 1 1 -14.3311 -39.5303 2.96775 0 0 0 
94 1 1 -11.529 -38.2125 5.41566 0 0 0 
97 1 1 -8.6994 -36.1015 6.95931 0 0 0 
100 1 1 -6.14973 -33.3756 7.76521 0 0 0 
98 2 1 -6.67529 -37.6407 9.93288 0 0 0 
105 3 1 0.71244 -30.6111 1.85493 0 0 0 
103 1 1 -3.68492 -30.1974 7.88265 0 0 0 
106 1 1 -1.21253 -27.2809 8.3929 0 0 0 
104 2 1 -1.55968 -29.9892 4.48515 0 0 0 
107 2 1 -1.75937 -24.1232 7.18726 0 0 0 
108 3 1 -1.87595 -20.6079 6.46018 0 0 0 
109 1 1 1.73174 -24.8655 9.53629 0 0 0 
112 1 1 3.39653 -21.2795 10.1001 0 0 0 
117 3 1 -0.65857 -13.2809 6.69728 0 0 0 
116 2 1 2.27193 -14.9632 7.81561 0 0 0 
115 1 1 4.51534 -17.6642 9.85078 0 0 0 
128 2 1 5.30437 -0.922663 9.50028 0 0 0 
126 3 1 15.8199 -4.50436 9.69943 0 0 0 
135 3 1 6.71383 7.19361 7.85685 0 0 0 
129 3 1 1.9996 1.08128 9.03717 0 0 0 
138 3 1 11.081 12.1003 7.31547 0 0 0 
96 3 1 -11.0784 -42.1384 10.6526 0 0 0 
101 2 1 -5.19875 -33.3151 11.7726 0 0 0 
99 3 1 -5.83624 -39.3088 12.9186 0 0 0 
102 3 1 -5.03295 -34.9543 14.8985 0 0 0 
111 3 1 8.59869 -27.5908 10.9251 0 0 0 
110 2 1 5.48258 -25.4438 10.9821 0 0 0 
113 2 1 5.7899 -20.4825 13.2207 0 0 0 
114 3 1 8.2099 -22.1403 15.8565 0 0 0 
119 2 1 9.97425 -15.1743 12.6657 0 0 0 
118 1 1 6.49993 -14.5567 10.6311 0 0 0 
121 1 1 7.90505 -10.9134 11.01 0 0 0 
120 3 1 13.6151 -15.2939 13.5998 0 0 0 
124 1 1 8.6577 -7.04495 11.1649 0 0 0 
127 1 1 8.13284 -3.23359 11.2757 0 0 0 
122 2 1 11.9643 -10.0134 11.3924 0 0 0 
125 2 1 12.2186 -5.25724 10.95 0 0 0 
123 3 1 14.2714 -9.80472 14.0891 0 0 0 
134 2 1 7.58755 6.03039 11.2279 0 0 0 
130 1 1 8.62799 0.297977 12.7933 0 0 0 
132 3 1 1.3252 3.001 13.8036 0 0 0 
131 2 1 4.9681 2.28018 13.3431 0 0 0 
133 1 1 9.38855 3.9622 13.4519 0 0 0 
136 1 1 10.4344 7.65907 13.737 0 0 0 
141 3 1 13.3084 17.5902 13.7638 0 0 0 
137 2 1 10.6616 10.1975 10.6975 0 0 0 
139 1 1 11.7219 10.3799 16.1047 0 0 0 
140 2 1 13.1497 14.04 14.8304 0 0 0 
142 1 1 13.1184 12.5284 18.8439 0 0 0 
146 2 1 15.0202 19.1076 18.1884 0 0 0 