ITEM: TIMESTEP
0
ITEM: NUMBER OF ATOMS
204
ITEM: BOX BOUNDS pp pp pp
-183.674 183.674
-183.674 183.674
-183.674 183.674
ITEM: ATOMS id type mol x y z ix iy iz 
2 2 1 -23.0584 -24.2137 -116.512 0 0 0 
3 3 1 -26.5045 -24.9196 -115.27 0 0 0 
1 1 1 -19.6689 -24.1552 -118.384 0 0 0 
4 1 1 -19.0834 -23.4201 -114.865 0 0 0 
5 2 1 -15.5559 -24.3592 -115.763 0 0 0 
6 3 1 -11.9687 -25.3301 -114.938 0 0 0 
8 2 1 -21.8874 -22.7434 -109.475 0 0 0 
9 3 1 -25.3334 -23.4493 -108.233 0 0 0 
14 2 1 -20.7163 -21.2731 -102.439 0 0 0 
7 1 1 -18.4978 -22.6849 -111.347 0 0 0 
10 1 1 -17.9123 -21.9497 -107.828 0 0 0 
11 2 1 -14.3848 -22.8889 -108.726 0 0 0 
12 3 1 -10.7976 -23.8598 -107.901 0 0 0 
13 1 1 -17.3268 -21.2146 -104.31 0 0 0 
15 3 1 -24.1623 -21.979 -101.196 0 0 0 
21 3 1 -22.9913 -20.5086 -94.1596 0 0 0 
16 1 1 -16.7412 -20.4794 -100.792 0 0 0 
17 2 1 -13.2138 -21.4186 -101.689 0 0 0 
18 3 1 -9.62656 -22.3895 -100.864 0 0 0 
24 3 1 -8.4555 -20.9191 -93.8274 0 0 0 
19 1 1 -16.1557 -19.7443 -97.2732 0 0 0 
20 2 1 -19.5452 -19.8027 -95.4019 0 0 0 
22 1 1 -15.5702 -19.0091 -93.7548 0 0 0 
23 2 1 -12.0427 -19.9483 -94.6525 0 0 0 
27 3 1 -21.8202 -19.0383 -87.1228 0 0 0 
25 1 1 -14.9846 -18.2739 -90.2364 0 0 0 
26 2 1 -18.3742 -18.3324 -88.3651 0 0 0 
28 1 1 -14.3991 -17.5388 -86.718 0 0 0 
29 2 1 -10.8717 -18.4779 -87.6157 0 0 0 
31 1 1 -13.8136 -16.8036 -83.1996 0 0 0 
30 3 1 -7.28443 -19.4488 -86.7906 0 0 0 
33 3 1 -20.6492 -17.568 -80.0861 0 0 0 
32 2 1 -17.2031 -16.8621 -81.3283 0 0 0 
34 1 1 -13.228 -16.0684 -79.6812 0 0 0 
37 1 1 -12.6425 -15.3333 -76.1628 0 0 0 
38 2 1 -16.032 -15.3918 -74.2915 0 0 0 
39 3 1 -19.4781 -16.0977 -73.0493 0 0 0 
40 1 1 -12.057 -14.5981 -72.6444 0 0 0 
35 2 1 -9.70059 -17.0076 -80.5789 0 0 0 
36 3 1 -6.11337 -17.9785 -79.7538 0 0 0 
41 2 1 -8.52953 -15.5373 -73.5421 0 0 0 
42 3 1 -4.94231 -16.5082 -72.7169 0 0 0 
43 1 1 -11.4715 -13.8629 -69.126 0 0 0 
44 2 1 -14.861 -13.9214 -67.2547 0 0 0 
45 3 1 -18.3071 -14.6273 -66.0125 0 0 0 
46 1 1 -10.8859 -13.1278 -65.6076 0 0 0 
49 1 1 -10.3004 -12.3926 -62.0892 0 0 0 
47 2 1 -7.35847 -14.067 -66.5053 0 0 0 
48 3 1 -3.77125 -15.0378 -65.6801 0 0 0 
50 2 1 -13.6899 -12.4511 -60.2179 0 0 0 
51 3 1 -17.136 -13.157 -58.9757 0 0 0 
56 2 1 -12.5189 -10.9808 -53.1811 0 0 0 
57 3 1 -15.9649 -11.6867 -51.9389 0 0 0 
52 1 1 -9.71487 -11.6575 -58.5708 0 0 0 
53 2 1 -6.18741 -12.5966 -59.4685 0 0 0 
54 3 1 -2.60019 -13.5675 -58.6433 0 0 0 
55 1 1 -9.12934 -10.9223 -55.0524 0 0 0 
59 2 1 -5.01635 -11.1263 -52.4317 0 0 0 
60 3 1 -1.42913 -12.0972 -51.6065 0 0 0 
58 1 1 -8.54381 -10.1871 -51.534 0 0 0 
63 3 1 -14.7939 -10.2164 -44.9021 0 0 0 
66 3 1 -0.258066 -10.6268 -44.5697 0 0 0 
62 2 1 -11.3478 -9.51044 -46.1443 0 0 0 
61 1 1 -7.95828 -9.45196 -48.0156 0 0 0 
64 1 1 -7.37275 -8.7168 -44.4972 0 0 0 
65 2 1 -3.84528 -9.65598 -45.3949 0 0 0 
67 1 1 -6.78722 -7.98163 -40.9788 0 0 0 
69 3 1 -13.6228 -8.74604 -37.8652 0 0 0 
75 3 1 -12.4517 -7.27571 -30.8284 0 0 0 
68 2 1 -10.1767 -8.04012 -39.1075 0 0 0 
70 1 1 -6.20169 -7.24647 -37.4604 0 0 0 
71 2 1 -2.67422 -8.18566 -38.3581 0 0 0 
73 1 1 -5.61616 -6.51131 -33.942 0 0 0 
74 2 1 -9.00567 -6.56979 -32.0707 0 0 0 
77 2 1 -1.50316 -6.71533 -31.3213 0 0 0 
72 3 1 0.912995 -9.15652 -37.5329 0 0 0 
81 3 1 -11.2807 -5.80539 -23.7916 0 0 0 
76 1 1 -5.03063 -5.77614 -30.4236 0 0 0 
79 1 1 -4.4451 -5.04098 -26.9052 0 0 0 
80 2 1 -7.83461 -5.09946 -25.0339 0 0 0 
82 1 1 -3.85956 -4.30582 -23.3868 0 0 0 
83 2 1 -0.332099 -5.245 -24.2845 0 0 0 
78 3 1 2.08406 -7.68619 -30.4962 0 0 0 
84 3 1 3.25512 -6.21586 -23.4593 0 0 0 
85 1 1 -3.27403 -3.57065 -19.8684 0 0 0 
86 2 1 -6.66355 -3.62914 -17.9971 0 0 0 
87 3 1 -10.1096 -4.33506 -16.7548 0 0 0 
88 1 1 -2.6885 -2.83549 -16.35 0 0 0 
91 1 1 -2.10297 -2.10033 -12.8316 0 0 0 
92 2 1 -5.49249 -2.15881 -10.9603 0 0 0 
89 2 1 0.838961 -3.77467 -17.2477 0 0 0 
90 3 1 4.42618 -4.74554 -16.4225 0 0 0 
95 2 1 2.01002 -2.30435 -10.2109 0 0 0 
93 3 1 -8.93856 -2.86473 -9.71804 0 0 0 
94 1 1 -1.51744 -1.36516 -9.31319 0 0 0 
97 1 1 -0.931911 -0.629998 -5.79479 0 0 0 
98 2 1 -4.32143 -0.688482 -3.92353 0 0 0 
99 3 1 -7.7675 -1.3944 -2.68124 0 0 0 
96 3 1 5.59724 -3.27521 -9.38575 0 0 0 
101 2 1 3.18108 -0.83402 -3.17409 0 0 0 
102 3 1 6.7683 -1.80488 -2.34895 0 0 0 
100 1 1 -0.34638 0.105164 -2.27638 0 0 0 
108 3 1 7.93936 -0.334554 4.68786 0 0 0 
104 2 1 -3.15037 0.781844 3.11327 0 0 0 
105 3 1 -6.59644 0.075921 4.35556 0 0 0 
110 2 1 -1.97931 2.25217 10.1501 0 0 0 
103 1 1 0.23915 0.840328 1.24202 0 0 0 
106 1 1 0.82468 1.57549 4.76042 0 0 0 
107 2 1 4.35215 0.636306 3.86271 0 0 0 
109 1 1 1.41021 2.31066 8.27882 0 0 0 
111 3 1 -5.42537 1.54625 11.3924 0 0 0 
116 2 1 -0.808244 3.7225 17.1869 0 0 0 
117 3 1 -4.25431 3.01658 18.4292 0 0 0 
112 1 1 1.99574 3.04582 11.7972 0 0 0 
113 2 1 5.52321 2.10663 10.8995 0 0 0 
114 3 1 9.11042 1.13577 11.7247 0 0 0 
115 1 1 2.58127 3.78098 15.3156 0 0 0 
118 1 1 3.1668 4.51615 18.834 0 0 0 
119 2 1 6.69427 3.57696 17.9363 0 0 0 
120 3 1 10.2815 2.6061 18.7614 0 0 0 
123 3 1 -3.08325 4.4869 25.466 0 0 0 
121 1 1 3.75233 5.25131 22.3524 0 0 0 
122 2 1 0.362816 5.19283 24.2237 0 0 0 
124 1 1 4.33786 5.98647 25.8708 0 0 0 
125 2 1 7.86533 5.04729 24.9731 0 0 0 
127 1 1 4.9234 6.72164 29.3892 0 0 0 
126 3 1 11.4525 4.07643 25.7983 0 0 0 
129 3 1 -1.91219 5.95723 32.5028 0 0 0 
135 3 1 -0.74113 7.42756 39.5396 0 0 0 
128 2 1 1.53388 6.66315 31.2605 0 0 0 
130 1 1 5.50893 7.4568 32.9076 0 0 0 
131 2 1 9.03639 6.51761 32.0099 0 0 0 
133 1 1 6.09446 8.19196 36.426 0 0 0 
134 2 1 2.70494 8.13348 38.2973 0 0 0 
136 1 1 6.67999 8.92713 39.9444 0 0 0 
132 3 1 12.6236 5.54675 32.8351 0 0 0 
137 2 1 10.2074 7.98794 39.0467 0 0 0 
138 3 1 13.7947 7.01708 39.8719 0 0 0 
139 1 1 7.26552 9.66229 43.4628 0 0 0 
140 2 1 3.876 9.60381 45.3341 0 0 0 
141 3 1 0.429931 8.89788 46.5764 0 0 0 
143 2 1 11.3785 9.45827 46.0835 0 0 0 
144 3 1 14.9657 8.48741 46.9087 0 0 0 
142 1 1 7.85105 10.3974 46.9812 0 0 0 
145 1 1 8.43658 11.1326 50.4996 0 0 0 
150 3 1 16.1368 9.95773 53.9455 0 0 0 
146 2 1 5.04706 11.0741 52.3709 0 0 0 
147 3 1 1.60099 10.3682 53.6132 0 0 0 
148 1 1 9.02211 11.8678 54.018 0 0 0 
151 1 1 9.60764 12.6029 57.5364 0 0 0 
152 2 1 6.21812 12.5445 59.4077 0 0 0 
153 3 1 2.77205 11.8385 60.65 0 0 0 
154 1 1 10.1932 13.3381 61.0548 0 0 0 
149 2 1 12.5496 10.9286 53.1203 0 0 0 
155 2 1 13.7206 12.3989 60.1571 0 0 0 
156 3 1 17.3078 11.4281 60.9823 0 0 0 
158 2 1 7.38919 14.0148 66.4445 0 0 0 
159 3 1 3.94312 13.3089 67.6868 0 0 0 
157 1 1 10.7787 14.0733 64.5732 0 0 0 
160 1 1 11.3642 14.8084 68.0916 0 0 0 
161 2 1 14.8917 13.8692 67.1939 0 0 0 
162 3 1 18.4789 12.8984 68.0191 0 0 0 
164 2 1 8.56025 15.4851 73.4813 0 0 0 
165 3 1 5.11418 14.7792 74.7236 0 0 0 
170 2 1 9.73131 16.9554 80.5181 0 0 0 
163 1 1 11.9498 15.5436 71.61 0 0 0 
166 1 1 12.5353 16.2788 75.1284 0 0 0 
167 2 1 16.0628 15.3396 74.2307 0 0 0 
168 3 1 19.65 14.3687 75.0559 0 0 0 
169 1 1 13.1208 17.0139 78.6468 0 0 0 
173 2 1 17.2338 16.8099 81.2675 0 0 0 
171 3 1 6.28524 16.2495 81.7604 0 0 0 
177 3 1 7.4563 17.7198 88.7972 0 0 0 
172 1 1 13.7064 17.7491 82.1652 0 0 0 
175 1 1 14.2919 18.4842 85.6836 0 0 0 
176 2 1 10.9024 18.4258 87.5549 0 0 0 
178 1 1 14.8774 19.2194 89.202 0 0 0 
179 2 1 18.4049 18.2802 88.3043 0 0 0 
174 3 1 20.821 15.839 82.0927 0 0 0 
180 3 1 21.9921 17.3094 89.1295 0 0 0 
183 3 1 8.62736 19.1902 95.834 0 0 0 
181 1 1 15.4629 19.9546 92.7204 0 0 0 
182 2 1 12.0734 19.8961 94.5917 0 0 0 
185 2 1 19.5759 19.7506 95.3411 0 0 0 
186 3 1 23.1632 18.7797 96.1663 0 0 0 
184 1 1 16.0485 20.6897 96.2388 0 0 0 
187 1 1 16.634 21.4249 99.7572 0 0 0 
188 2 1 13.2445 21.3664 101.628 0 0 0 
192 3 1 24.3342 20.25 103.203 0 0 0 
189 3 1 9.79842 20.6605 102.871 0 0 0 
190 1 1 17.2195 22.1601 103.276 0 0 0 
193 1 1 17.8051 22.8952 106.794 0 0 0 
194 2 1 14.4155 22.8367 108.665 0 0 0 
195 3 1 10.9695 22.1308 109.907 0 0 0 
196 1 1 18.3906 23.6304 110.312 0 0 0 
191 2 1 20.747 21.2209 102.378 0 0 0 
197 2 1 21.9181 22.6912 109.415 0 0 0 
198 3 1 25.5053 21.7203 110.24 0 0 0 
199 1 1 18.9761 24.3656 113.831 0 0 0 
200 2 1 15.5866 24.3071 115.702 0 0 0 
201 3 1 12.1405 23.6012 116.944 0 0 0 
202 1 1 19.5617 25.1007 117.349 0 0 0 
203 2 1 23.0891 24.1615 116.451 0 0 0 
204 3 1 26.6763 23.1907 117.277 0 0 0 
ITEM: TIMESTEP
100000
ITEM: NUMBER OF ATOMS
204
ITEM: BOX BOUNDS pp pp pp
-183.674 183.674
-183.674 183.674
-183.674 183.674
ITEM: ATOMS id type mol x y z ix iy iz 
1 1 1 -25.003 -11.5814 -108.196 0 0 0 
2 2 1 -23.584 -8.08973 -109.634 0 0 0 
4 1 1 -25.6094 -9.34497 -105.06 0 0 0 
3 3 1 -23.185 -4.86973 -108.258 0 0 0 
8 2 1 -25.5491 -2.2845 -104.409 0 0 0 
5 2 1 -27.6893 -9.88289 -101.745 0 0 0 
7 1 1 -25.1924 -6.13972 -102.896 0 0 0 
6 3 1 -28.14 -10.771 -97.9523 0 0 0 
10 1 1 -24.5893 -3.70405 -99.7182 0 0 0 
11 2 1 -27.6984 -3.63547 -97.1119 0 0 0 
9 3 1 -24.305 1.07176 -105.645 0 0 0 
15 3 1 -16.1657 1.61065 -95.7971 0 0 0 
13 1 1 -22.8999 -1.38942 -97.2581 0 0 0 
14 2 1 -19.0323 -0.0639959 -97.1052 0 0 0 
17 2 1 -26.6273 1.84426 -93.0543 0 0 0 
16 1 1 -22.7655 1.09631 -94.1709 0 0 0 
18 3 1 -29.6808 1.32851 -91.1539 0 0 0 
12 3 1 -31.5473 -3.59205 -97.7743 0 0 0 
24 3 1 -17.61 0.0916125 -85.5187 0 0 0 
23 2 1 -17.9623 3.29465 -86.5619 0 0 0 
19 1 1 -22.0162 3.44632 -91.2202 0 0 0 
22 1 1 -20.3783 5.4464 -88.3011 0 0 0 
20 2 1 -25.0315 5.52276 -89.5297 0 0 0 
25 1 1 -18.7594 7.0078 -84.9837 0 0 0 
21 3 1 -28.0602 5.19841 -87.6251 0 0 0 
27 3 1 -19.1267 13.2619 -82.3236 0 0 0 
26 2 1 -18.6201 10.3958 -84.896 0 0 0 
28 1 1 -17.8024 7.28635 -81.2481 0 0 0 
29 2 1 -17.4227 4.28933 -78.5703 0 0 0 
32 2 1 -15.2996 12.8464 -77.4651 0 0 0 
31 1 1 -16.5899 9.04245 -77.9644 0 0 0 
34 1 1 -15.5468 9.1856 -74.1236 0 0 0 
33 3 1 -15.3622 15.7146 -79.5145 0 0 0 
30 3 1 -21.0351 4.50164 -77.2051 0 0 0 
37 1 1 -14.6014 10.257 -70.5547 0 0 0 
35 2 1 -14.9198 5.81514 -72.0593 0 0 0 
40 1 1 -14.7506 9.74192 -66.8217 0 0 0 
43 1 1 -15.159 9.72091 -62.8527 0 0 0 
36 3 1 -11.2754 5.36659 -71.6851 0 0 0 
41 2 1 -12.5829 7.02636 -64.7607 0 0 0 
42 3 1 -9.162 5.43712 -64.3286 0 0 0 
45 3 1 -20.3419 14.1275 -61.8777 0 0 0 
39 3 1 -8.89547 14.9888 -68.4381 0 0 0 
44 2 1 -17.637 12.1357 -60.7234 0 0 0 
38 2 1 -11.9302 13.1055 -69.2723 0 0 0 
46 1 1 -14.9355 8.88259 -59.0492 0 0 0 
49 1 1 -15.4024 8.5388 -55.2296 0 0 0 
52 1 1 -15.0339 6.53151 -51.8879 0 0 0 
47 2 1 -12.8929 5.42399 -58.39 0 0 0 
48 3 1 -11.2529 2.80267 -56.7525 0 0 0 
53 2 1 -11.9534 4.08508 -50.8212 0 0 0 
54 3 1 -10.3952 0.710245 -51.0207 0 0 0 
50 2 1 -17.3679 10.815 -52.5113 0 0 0 
60 3 1 -10.6923 -2.2927 -43.4755 0 0 0 
57 3 1 -21.0029 8.24363 -44.0904 0 0 0 
61 1 1 -16.916 1.7488 -41.3843 0 0 0 
55 1 1 -15.7217 5.05577 -48.1744 0 0 0 
56 2 1 -19.0527 6.29561 -46.6507 0 0 0 
58 1 1 -16.2995 3.17275 -44.9029 0 0 0 
59 2 1 -13.7613 0.122074 -43.715 0 0 0 
51 3 1 -20.2658 11.8461 -50.1334 0 0 0 
72 3 1 -20.5065 -2.96011 -25.757 0 0 0 
68 2 1 -19.5186 -0.986391 -32.1852 0 0 0 
63 3 1 -23.4041 4.06613 -37.713 0 0 0 
69 3 1 -22.5434 1.39858 -32.6987 0 0 0 
64 1 1 -16.1417 -0.0506449 -38.0759 0 0 0 
67 1 1 -16.2472 -1.51975 -34.3445 0 0 0 
70 1 1 -15.4156 -3.68984 -31.1504 0 0 0 
65 2 1 -12.6198 -1.90238 -37.7592 0 0 0 
75 3 1 -8.86348 -9.93027 -32.561 0 0 0 
62 2 1 -20.0143 3.00278 -39.262 0 0 0 
66 3 1 -10.6386 -4.73839 -37.832 0 0 0 
77 2 1 -9.11286 -10.0599 -25.8091 0 0 0 
78 3 1 -5.60769 -10.7579 -27.1964 0 0 0 
71 2 1 -18.246 -3.91888 -28.2385 0 0 0 
73 1 1 -13.6435 -5.90128 -28.5524 0 0 0 
76 1 1 -12.2197 -7.66578 -25.3309 0 0 0 
79 1 1 -11.4211 -8.32951 -21.5069 0 0 0 
74 2 1 -10.6457 -8.10074 -30.143 0 0 0 
81 3 1 -6.12665 -2.9272 -19.3754 0 0 0 
80 2 1 -8.41268 -5.91473 -19.9741 0 0 0 
82 1 1 -11.2609 -9.66559 -18.0655 0 0 0 
83 2 1 -13.4608 -12.6978 -16.8645 0 0 0 
84 3 1 -16.7941 -13.5247 -16.1117 0 0 0 
85 1 1 -10.0826 -10.0815 -14.3436 0 0 0 
88 1 1 -8.73676 -10.1515 -10.6318 0 0 0 
86 2 1 -7.00369 -7.71593 -13.6148 0 0 0 
87 3 1 -5.4611 -4.51284 -15.0759 0 0 0 
92 2 1 -3.41796 -6.12756 -9.9172 0 0 0 
91 1 1 -6.33282 -8.13909 -8.05435 0 0 0 
89 2 1 -9.49615 -12.2124 -7.19159 0 0 0 
90 3 1 -11.6052 -13.6619 -4.30724 0 0 0 
96 3 1 -4.7063 -8.27917 2.01667 0 0 0 
94 1 1 -4.66011 -6.14207 -5.11263 0 0 0 
97 1 1 -3.23056 -3.22307 -3.03872 0 0 0 
95 2 1 -4.91041 -7.95875 -1.42557 0 0 0 
100 1 1 -1.41704 -1.26779 -0.114242 0 0 0 
93 3 1 -0.0466168 -5.97858 -8.76215 0 0 0 
98 2 1 -1.41506 0.204789 -4.21726 0 0 0 
99 3 1 -0.0902025 3.00657 -6.45265 0 0 0 
101 2 1 -1.09339 -3.15516 3.57985 0 0 0 
102 3 1 0.188957 -5.02692 6.29867 0 0 0 
104 2 1 2.1477 3.81167 -0.932058 0 0 0 
105 3 1 4.63013 5.7582 -2.72924 0 0 0 
103 1 1 0.435653 1.45546 1.84975 0 0 0 
107 2 1 2.73673 7.48144 3.23567 0 0 0 
106 1 1 2.71935 3.589 4.10468 0 0 0 
109 1 1 5.19592 5.31302 6.62833 0 0 0 
110 2 1 7.84722 7.98695 5.73297 0 0 0 
108 3 1 1.38205 8.63023 -0.0851421 0 0 0 
111 3 1 7.6379 11.301 4.67318 0 0 0 
117 3 1 0.668326 8.81006 16.5389 0 0 0 
112 1 1 6.85344 6.1373 9.96759 0 0 0 
113 2 1 10.3039 8.17591 10.8136 0 0 0 
116 2 1 3.68248 7.15162 15.8125 0 0 0 
115 1 1 7.05738 6.1671 13.8726 0 0 0 
118 1 1 8.00297 6.64136 17.5893 0 0 0 
114 3 1 11.3711 11.1093 12.349 0 0 0 
123 3 1 16.7813 8.14938 20.8063 0 0 0 
121 1 1 9.73861 7.5727 20.8763 0 0 0 
119 2 1 7.40084 4.0138 20.6102 0 0 0 
120 3 1 7.85188 1.78177 23.6816 0 0 0 
125 2 1 9.3103 5.94871 27.3127 0 0 0 
122 2 1 13.388 9.15098 20.7645 0 0 0 
124 1 1 10.7955 8.64148 24.5224 0 0 0 
127 1 1 12.1888 10.2873 27.7426 0 0 0 
130 1 1 13.0253 10.1634 31.5502 0 0 0 
128 2 1 13.852 13.8048 28.5167 0 0 0 
131 2 1 15.0852 13.3471 32.7059 0 0 0 
129 3 1 13.5123 17.1805 27.2417 0 0 0 
132 3 1 15.569 16.6427 33.6853 0 0 0 
126 3 1 6.64694 4.5123 29.0094 0 0 0 
135 3 1 11.6128 4.75854 40.8615 0 0 0 
133 1 1 13.7509 9.26158 35.2352 0 0 0 
134 2 1 11.8537 7.37195 38.1379 0 0 0 
136 1 1 15.8936 9.39077 38.4019 0 0 0 
139 1 1 18.1869 8.73328 41.379 0 0 0 
137 2 1 18.181 12.6821 38.8223 0 0 0 
138 3 1 20.0598 15.6197 40.3628 0 0 0 
148 1 1 22.6349 6.83038 51.8676 0 0 0 
146 2 1 18.7427 4.02342 51.0107 0 0 0 
142 1 1 19.7726 7.87806 44.9008 0 0 0 
143 2 1 23.9061 7.85445 45.6505 0 0 0 
140 2 1 21.8874 10.1134 40.7072 0 0 0 
141 3 1 25.2848 10.7403 39.1737 0 0 0 
144 3 1 27.2204 9.01015 46.1264 0 0 0 
145 1 1 20.485 6.44657 48.6322 0 0 0 
147 3 1 16.8745 3.20025 54.2657 0 0 0 
150 3 1 29.3583 8.62722 53.925 0 0 0 
154 1 1 22.4829 5.25789 59.2228 0 0 0 
151 1 1 23.4027 6.55278 55.7947 0 0 0 
152 2 1 26.2191 8.44686 58.0987 0 0 0 
153 3 1 27.2509 10.6624 60.6562 0 0 0 
155 2 1 19.8113 2.53253 60.9776 0 0 0 
156 3 1 18.6441 -0.647574 61.6829 0 0 0 
149 2 1 26.2197 8.51893 51.6946 0 0 0 
157 1 1 22.6952 5.7686 63.0522 0 0 0 
163 1 1 21.1302 5.44932 70.3955 0 0 0 
160 1 1 22.0735 5.42185 66.7759 0 0 0 
161 2 1 19.2753 2.51759 67.4298 0 0 0 
162 3 1 17.494 -0.704642 67.2519 0 0 0 
158 2 1 25.7021 8.04158 64.9332 0 0 0 
159 3 1 29.3398 8.73153 65.3744 0 0 0 
201 3 1 14.3241 -28.688 71.7744 0 0 0 
198 3 1 12.4214 -22.5166 74.5118 0 0 0 
192 3 1 18.101 -18.3175 78.2384 0 0 0 
186 3 1 10.0337 -11.9249 79.413 0 0 0 
173 2 1 15.7532 -0.714125 79.9108 0 0 0 
174 3 1 14.8834 -4.29376 78.7982 0 0 0 
168 3 1 11.5496 6.59144 74.4407 0 0 0 
164 2 1 23.9292 5.66437 73.2022 0 0 0 
167 2 1 15.1638 5.42024 74.7782 0 0 0 
166 1 1 19.1253 4.84201 73.7517 0 0 0 
169 1 1 18.9726 4.00766 77.5482 0 0 0 
172 1 1 18.082 2.38063 80.9073 0 0 0 
170 2 1 20.8747 6.08191 80.5856 0 0 0 
171 3 1 21.2668 8.57294 82.9984 0 0 0 
165 3 1 26.6643 5.02508 75.7719 0 0 0 
200 2 1 15.4918 -28.5183 75.113 0 0 0 
204 3 1 18.7513 -37.7743 80.0911 0 0 0 
203 2 1 17.2812 -35.0777 78.4547 0 0 0 
202 1 1 15.2006 -31.9714 78.0021 0 0 0 
193 1 1 14.5942 -21.8781 83.2078 0 0 0 
199 1 1 15.0875 -28.222 78.9898 0 0 0 
196 1 1 14.4448 -25.0329 80.9102 0 0 0 
195 3 1 15.4379 -26.3779 89.3781 0 0 0 
194 2 1 14.8437 -24.9714 85.8255 0 0 0 
197 2 1 14.6234 -24.0304 76.8694 0 0 0 
184 1 1 14.5894 -10.5366 84.6961 0 0 0 
190 1 1 14.7752 -17.9579 83.6725 0 0 0 
187 1 1 14.5584 -14.3751 85.2216 0 0 0 
188 2 1 14.5179 -16.5755 88.5822 0 0 0 
189 3 1 13.3364 -19.1508 91.1222 0 0 0 
183 3 1 15.992 -10.2941 93.1356 0 0 0 
185 2 1 13.1366 -11.5214 81.391 0 0 0 
191 2 1 14.9183 -18.5974 79.6135 0 0 0 
182 2 1 15.4091 -8.90477 89.4785 0 0 0 
181 1 1 15.609 -7.04938 85.9687 0 0 0 
178 1 1 16.9438 -3.42207 85.702 0 0 0 
180 3 1 20.4292 -1.54738 89.386 0 0 0 
179 2 1 18.3584 -4.3276 89.3787 0 0 0 
175 1 1 17.3659 0.061598 83.9786 0 0 0 
176 2 1 16.1009 1.38892 87.6226 0 0 0 
177 3 1 15.2355 1.15586 91.0748 0 0 0 
ITEM: TIMESTEP
200000
ITEM: NUMBER OF ATOMS
204
ITEM: BOX BOUNDS pp pp pp
-183.674 183.674
-183.674 183.674
-183.674 183.674
ITEM: ATOMS id type mol x y z ix iy iz 
2 2 1 -17.7624 25.5392 -93.1863 0 0 0 
3 3 1 -16.2794 27.7096 -95.9733 0 0 0 
9 3 1 -7.34205 27.5396 -93.2734 0 0 0 
1 1 1 -19.2327 22.2074 -91.3603 0 0 0 
4 1 1 -15.4868 21.8683 -90.5422 0 0 0 
8 2 1 -9.29575 24.5032 -91.7739 0 0 0 
11 2 1 -4.47269 23.8526 -89.0199 0 0 0 
12 3 1 -1.32974 25.035 -89.718 0 0 0 
6 3 1 -11.4926 16.5716 -86.5092 0 0 0 
5 2 1 -13.6802 18.6015 -89.0981 0 0 0 
10 1 1 -8.41776 23.5426 -87.8301 0 0 0 
7 1 1 -11.8105 23.0038 -89.8388 0 0 0 
13 1 1 -7.09142 23.5526 -84.1221 0 0 0 
17 2 1 -1.40546 21.1873 -81.4299 0 0 0 
18 3 1 0.205581 18.156 -83.1673 0 0 0 
23 2 1 -0.994658 20.5543 -71.455 0 0 0 
24 3 1 0.678847 17.1971 -71.738 0 0 0 
15 3 1 -11.8504 24.0019 -77.9103 0 0 0 
14 2 1 -8.86599 23.9528 -80.4541 0 0 0 
16 1 1 -4.90439 23.0975 -80.9353 0 0 0 
20 2 1 -6.12547 25.5322 -74.8957 0 0 0 
22 1 1 -3.34346 23.3083 -73.3081 0 0 0 
19 1 1 -3.79018 23.0687 -77.2069 0 0 0 
30 3 1 -6.09965 31.0365 -62.2755 0 0 0 
29 2 1 -4.7231 28.1796 -64.0705 0 0 0 
21 3 1 -8.40813 25.0253 -72.2338 0 0 0 
25 1 1 -3.8355 24.4656 -69.7601 0 0 0 
26 2 1 -5.05173 28.2894 -68.7174 0 0 0 
31 1 1 -5.63494 23.0368 -62.472 0 0 0 
27 3 1 -3.98303 31.6634 -68.8161 0 0 0 
28 1 1 -4.86561 24.5574 -66.0067 0 0 0 
36 3 1 -12.5458 17.1293 -63.5362 0 0 0 
42 3 1 -3.97714 18.647 -46.8707 0 0 0 
41 2 1 -6.46959 17.9481 -49.577 0 0 0 
35 2 1 -9.86194 18.0022 -61.1613 0 0 0 
33 3 1 -4.38569 26.5889 -55.5722 0 0 0 
38 2 1 -4.78928 20.4337 -54.2213 0 0 0 
32 2 1 -4.70642 24.1424 -58.7046 0 0 0 
34 1 1 -7.20665 20.3395 -60.3019 0 0 0 
37 1 1 -7.63394 19.0099 -56.5866 0 0 0 
40 1 1 -8.4005 17.197 -53.1889 0 0 0 
48 3 1 -17.1498 6.70852 -49.6365 0 0 0 
43 1 1 -10.0895 14.6404 -50.782 0 0 0 
47 2 1 -14.4502 9.09727 -49.0615 0 0 0 
51 3 1 -18.7455 6.842 -42.6331 0 0 0 
46 1 1 -12.371 12.5333 -48.4907 0 0 0 
50 2 1 -16.5505 9.55011 -43.2585 0 0 0 
49 1 1 -14.2857 12.433 -45.0699 0 0 0 
39 3 1 -1.10318 20.7642 -54.6524 0 0 0 
45 3 1 -9.57896 18.4577 -44.8433 0 0 0 
44 2 1 -10.4123 15.9432 -47.2609 0 0 0 
55 1 1 -15.2596 15.998 -38.2707 0 0 0 
58 1 1 -13.9138 15.7033 -34.7177 0 0 0 
52 1 1 -15.2332 14.4628 -41.9959 0 0 0 
56 2 1 -16.7939 18.8254 -37.1256 0 0 0 
53 2 1 -16.9846 17.9696 -42.7575 0 0 0 
54 3 1 -19.6584 20.3873 -44.2522 0 0 0 
74 2 1 -7.19755 0.70545 -23.0685 0 0 0 
69 3 1 -9.38979 1.02834 -30.8992 0 0 0 
63 3 1 -11.7555 7.11253 -33.8958 0 0 0 
62 2 1 -10.5468 10.6015 -33.2739 0 0 0 
64 1 1 -9.83045 11.916 -29.5177 0 0 0 
68 2 1 -9.7676 4.53403 -29.3346 0 0 0 
67 1 1 -8.92804 8.38824 -28.3503 0 0 0 
70 1 1 -6.73728 6.61954 -25.698 0 0 0 
73 1 1 -5.13163 4.21399 -23.1255 0 0 0 
71 2 1 -3.62005 8.42318 -24.1164 0 0 0 
66 3 1 -4.64701 14.2232 -24.3696 0 0 0 
65 2 1 -7.54045 12.4312 -26.1284 0 0 0 
60 3 1 -17.2686 16.4929 -27.9861 0 0 0 
61 1 1 -11.7722 14.1223 -31.9681 0 0 0 
59 2 1 -15.3386 16.9866 -31.1907 0 0 0 
57 3 1 -17.5191 22.6035 -37.3585 0 0 0 
81 3 1 -4.85196 -7.74886 -19.0055 0 0 0 
87 3 1 -0.969504 -7.13572 -9.53847 0 0 0 
90 3 1 3.2195 -10.7026 -9.00944 0 0 0 
86 2 1 1.34954 -6.74401 -12.1508 0 0 0 
89 2 1 4.92155 -11.3222 -11.9506 0 0 0 
91 1 1 9.46295 -9.08479 -11.8945 0 0 0 
99 3 1 8.56768 -15.9175 -1.8208 0 0 0 
94 1 1 12.333 -10.8345 -10.0088 0 0 0 
75 3 1 -10.3659 -0.288263 -23.9921 0 0 0 
80 2 1 -2.69532 -4.89501 -18.877 0 0 0 
76 1 1 -2.98992 1.79278 -20.7462 0 0 0 
77 2 1 -1.13669 3.73845 -17.6058 0 0 0 
79 1 1 -1.05592 -1.08517 -19.0712 0 0 0 
82 1 1 2.01021 -2.68069 -17.3112 0 0 0 
88 1 1 6.19457 -7.76425 -13.1707 0 0 0 
85 1 1 3.84551 -5.26131 -15.1359 0 0 0 
84 3 1 8.9711 -2.30895 -19.0567 0 0 0 
83 2 1 5.80469 -1.95284 -17.6891 0 0 0 
72 3 1 -0.523482 10.6888 -24.5051 0 0 0 
78 3 1 0.83877 6.42749 -15.7167 0 0 0 
105 3 1 12.4851 -20.7071 3.0567 0 0 0 
97 1 1 13.2763 -12.7699 -6.65113 0 0 0 
100 1 1 15.6753 -13.9009 -3.97921 0 0 0 
98 2 1 11.23 -14.3532 -3.44458 0 0 0 
101 2 1 19.3901 -12.9321 -3.99317 0 0 0 
103 1 1 17.0917 -15.848 -0.808133 0 0 0 
104 2 1 15.3527 -18.8732 1.17318 0 0 0 
106 1 1 19.3843 -17.2847 1.98659 0 0 0 
92 2 1 12.5562 -7.83972 -14.2944 0 0 0 
93 3 1 14.5839 -8.39552 -17.4825 0 0 0 
95 2 1 16.4711 -10.253 -10.3851 0 0 0 
96 3 1 19.6497 -11.372 -11.3519 0 0 0 
102 3 1 22.346 -11.4165 -2.6456 0 0 0 
111 3 1 18.3011 -25.8199 6.648 0 0 0 
107 2 1 21.5556 -14.294 4.00036 0 0 0 
109 1 1 20.9294 -19.2152 4.79435 0 0 0 
110 2 1 19.1645 -22.3411 6.65947 0 0 0 
112 1 1 23.5348 -19.131 7.60342 0 0 0 
113 2 1 25.9588 -15.8424 7.53232 0 0 0 
115 1 1 25.3302 -19.3571 10.8489 0 0 0 
108 3 1 22.1984 -10.5492 4.36466 0 0 0 
117 3 1 24.989 -25.7432 12.4302 0 0 0 
114 3 1 25.8199 -12.2988 8.62459 0 0 0 
120 3 1 31.2709 -13.0946 9.95354 0 0 0 
118 1 1 27.3408 -17.7565 13.7208 0 0 0 
116 2 1 25.8 -22.2565 13.7526 0 0 0 
119 2 1 29.9136 -15.1987 12.6784 0 0 0 
121 1 1 28.7738 -17.0364 17.2419 0 0 0 
122 2 1 30.7562 -19.1778 19.9365 0 0 0 
123 3 1 30.7039 -21.7869 22.7192 0 0 0 
124 1 1 29.5525 -14.7839 20.3454 0 0 0 
125 2 1 29.1955 -10.6966 20.4267 0 0 0 
127 1 1 30.4633 -14.0344 24.0315 0 0 0 
130 1 1 29.5272 -12.747 27.6802 0 0 0 
126 3 1 27.5322 -7.52513 19.1713 0 0 0 
128 2 1 33.7517 -15.09 26.016 0 0 0 
129 3 1 35.4011 -17.5314 27.8075 0 0 0 
133 1 1 27.9621 -11.3739 31.0246 0 0 0 
136 1 1 26.718 -10.5525 34.5214 0 0 0 
134 2 1 25.0337 -8.52336 31.5416 0 0 0 
131 2 1 30.8951 -14.6608 30.8747 0 0 0 
132 3 1 31.0723 -18.12 31.5578 0 0 0 
137 2 1 28.6174 -11.3773 37.587 0 0 0 
139 1 1 24.7018 -9.66424 37.7007 0 0 0 
138 3 1 31.5163 -12.4933 39.8339 0 0 0 
135 3 1 24.0815 -4.93528 31.9469 0 0 0 
140 2 1 25.178 -11.1116 41.353 0 0 0 
141 3 1 25.7472 -13.622 43.8512 0 0 0 
147 3 1 18.3683 -13.9013 47.3691 0 0 0 
148 1 1 18.1778 -6.04567 46.2994 0 0 0 
146 2 1 18.5022 -10.7644 45.1981 0 0 0 
151 1 1 16.2089 -5.68216 49.6184 0 0 0 
142 1 1 22.1515 -7.96139 40.0882 0 0 0 
143 2 1 19.5448 -4.81174 39.7642 0 0 0 
144 3 1 16.6826 -3.13768 41.4148 0 0 0 
145 1 1 20.3278 -7.60914 43.477 0 0 0 
149 2 1 17.6948 -2.21556 47.336 0 0 0 
189 3 1 -29.4974 -4.37636 65.6734 0 0 0 
180 3 1 -18.7897 -6.91666 58.8879 0 0 0 
178 1 1 -14.3695 -9.93832 63.5617 0 0 0 
179 2 1 -17.7407 -8.77215 61.6505 0 0 0 
175 1 1 -10.8822 -10.0875 61.8126 0 0 0 
176 2 1 -13.5567 -9.60292 58.9512 0 0 0 
177 3 1 -15.6121 -8.32116 56.1278 0 0 0 
172 1 1 -6.93187 -10.1568 61.0398 0 0 0 
169 1 1 -3.40566 -9.60799 59.5857 0 0 0 
170 2 1 -4.51798 -13.4548 59.6856 0 0 0 
171 3 1 -6.39407 -16.212 58.448 0 0 0 
163 1 1 2.95995 -6.48125 56.7182 0 0 0 
164 2 1 2.54411 -4.73943 59.7989 0 0 0 
160 1 1 6.11449 -6.03509 54.629 0 0 0 
158 2 1 8.6955 -2.34264 56.7697 0 0 0 
162 3 1 2.44091 -8.22447 48.4547 0 0 0 
161 2 1 4.4348 -7.82075 51.3501 0 0 0 
166 1 1 -0.278644 -7.80771 58.2758 0 0 0 
159 3 1 6.23321 -0.51132 58.9278 0 0 0 
152 2 1 18.2334 -4.61899 52.8915 0 0 0 
153 3 1 21.1464 -3.70019 55.3534 0 0 0 
155 2 1 14.337 -2.65288 54.811 0 0 0 
157 1 1 9.7177 -4.91882 53.7308 0 0 0 
154 1 1 13.2034 -5.16538 52.0813 0 0 0 
156 3 1 14.7941 -1.9331 58.2723 0 0 0 
150 3 1 17.5808 0.444226 49.7468 0 0 0 
201 3 1 -43.2888 -13.5783 74.7291 0 0 0 
192 3 1 -34.868 -8.66338 69.9258 0 0 0 
187 1 1 -24.2408 -8.9547 68.9485 0 0 0 
188 2 1 -27.2297 -6.97788 67.1636 0 0 0 
190 1 1 -27.451 -9.93073 70.8228 0 0 0 
191 2 1 -31.2874 -9.01985 69.5152 0 0 0 
182 2 1 -16.8332 -10.1983 70.3587 0 0 0 
183 3 1 -16.5422 -12.5793 73.0401 0 0 0 
186 3 1 -23.2815 -3.978 62.2603 0 0 0 
185 2 1 -21.9152 -5.71095 65.4222 0 0 0 
184 1 1 -20.6511 -8.7652 67.3077 0 0 0 
181 1 1 -17.1308 -9.85812 66.2846 0 0 0 
173 2 1 -7.20067 -13.0049 63.9855 0 0 0 
168 3 1 -2.22945 -2.16293 63.0118 0 0 0 
167 2 1 -2.40983 -5.1223 60.5407 0 0 0 
174 3 1 -8.26185 -14.3385 67.4773 0 0 0 
165 3 1 2.90409 -3.96149 63.5463 0 0 0 
200 2 1 -40.3954 -12.158 76.3679 0 0 0 
196 1 1 -33.263 -11.8429 75.3058 0 0 0 
202 1 1 -38.521 -13.8013 80.1897 0 0 0 
203 2 1 -37.8003 -16.0608 83.414 0 0 0 
199 1 1 -36.5265 -12.8204 77.1249 0 0 0 
194 2 1 -28.6005 -12.5759 76.8315 0 0 0 
193 1 1 -29.9349 -11.4697 73.1911 0 0 0 
195 3 1 -26.2 -14.6698 78.9521 0 0 0 
197 2 1 -33.334 -15.3669 77.0209 0 0 0 
198 3 1 -31.4611 -18.4227 77.1158 0 0 0 
204 3 1 -35.6837 -17.3185 86.1127 0 0 0 
ITEM: TIMESTEP
300000
ITEM: NUMBER OF ATOMS
204
ITEM: BOX BOUNDS pp pp pp
-183.674 183.674
-183.674 183.674
-183.674 183.674
ITEM: ATOMS id type mol x y z ix iy iz 
48 3 1 31.6813 4.1878 -52.2582 0 0 0 
47 2 1 28.3927 5.21227 -52.749 0 0 0 
42 3 1 32.2984 10.7074 -60.3018 0 0 0 
36 3 1 35.817 17.9015 -55.109 0 0 0 
29 2 1 33.6901 26.7771 -59.3845 0 0 0 
30 3 1 35.4331 25.4832 -62.5288 0 0 0 
23 2 1 31.1766 33.4666 -63.7823 0 0 0 
24 3 1 33.067 33.1731 -66.8111 0 0 0 
21 3 1 31.4975 38.1132 -69.4915 0 0 0 
20 2 1 31.8667 38.2024 -65.7461 0 0 0 
14 2 1 32.3382 46.9776 -65.4666 0 0 0 
15 3 1 33.8099 46.622 -68.9265 0 0 0 
11 2 1 30.1971 51.0641 -65.2425 0 0 0 
5 2 1 32.3469 57.2438 -63.454 0 0 0 
4 1 1 30.2004 58.7466 -60.3816 0 0 0 
12 3 1 31.2004 51.1952 -68.9069 0 0 0 
6 3 1 33.6376 55.3721 -66.2356 0 0 0 
2 2 1 29.6956 60.8704 -64.3128 0 0 0 
3 3 1 29.1482 58.0923 -66.6731 0 0 0 
1 1 1 29.7156 62.5244 -60.6634 0 0 0 
60 3 1 14.3797 -7.54721 -55.3263 0 0 0 
58 1 1 15.7917 -2.51764 -49.9154 0 0 0 
59 2 1 15.0695 -5.63218 -52.4429 0 0 0 
55 1 1 18.942 -0.516143 -50.8618 0 0 0 
51 3 1 25.194 0.589945 -57.8785 0 0 0 
57 3 1 21.5621 -7.13221 -53.3355 0 0 0 
56 2 1 19.6868 -4.27326 -52.2247 0 0 0 
52 1 1 21.0608 2.72456 -51.2034 0 0 0 
50 2 1 24.2313 2.18798 -54.8132 0 0 0 
46 1 1 26.0336 8.1948 -53.1049 0 0 0 
49 1 1 23.7982 5.26909 -52.2427 0 0 0 
45 3 1 22.5381 15.5703 -51.0097 0 0 0 
44 2 1 24.0151 12.2929 -51.7788 0 0 0 
41 2 1 31.0422 12.3678 -57.1736 0 0 0 
40 1 1 29.1245 14.82 -55.3341 0 0 0 
37 1 1 29.2904 18.7798 -55.2386 0 0 0 
38 2 1 25.8746 17.8922 -57.2971 0 0 0 
43 1 1 27.1398 11.7446 -54.1838 0 0 0 
39 3 1 22.3771 17.5869 -57.6225 0 0 0 
35 2 1 33.1584 20.6431 -54.0132 0 0 0 
34 1 1 30.5076 22.4708 -55.0791 0 0 0 
27 3 1 24.2833 33.3436 -55.4355 0 0 0 
28 1 1 31.1793 29.477 -57.852 0 0 0 
31 1 1 30.5224 26.3592 -55.5628 0 0 0 
32 2 1 28.0702 26.6349 -52.3081 0 0 0 
33 3 1 25.1792 26.4236 -50.2922 0 0 0 
25 1 1 30.8467 33.1498 -59.2668 0 0 0 
26 2 1 28.045 33.0524 -56.3278 0 0 0 
22 1 1 30.729 36.4779 -61.1598 0 0 0 
16 1 1 30.2945 43.8119 -61.6676 0 0 0 
13 1 1 30.5642 47.6164 -61.7762 0 0 0 
19 1 1 30.656 40.0272 -62.3533 0 0 0 
17 2 1 28.5641 42.2162 -58.718 0 0 0 
18 3 1 26.0742 40.2192 -56.7589 0 0 0 
9 3 1 28.9875 50.6145 -53.2433 0 0 0 
8 2 1 30.0746 52.5723 -56.3869 0 0 0 
7 1 1 30.0872 54.961 -59.7083 0 0 0 
10 1 1 30.2629 51.4626 -61.2825 0 0 0 
63 3 1 10.384 -10.7866 -51.3959 0 0 0 
66 3 1 4.01183 -7.42541 -51.3599 0 0 0 
68 2 1 2.89264 -5.25469 -43.8382 0 0 0 
65 2 1 5.2845 -4.9958 -48.8899 0 0 0 
62 2 1 10.9929 -7.30419 -50.2235 0 0 0 
67 1 1 6.43793 -3.30112 -44.1192 0 0 0 
61 1 1 12.3714 -3.80815 -48.5499 0 0 0 
64 1 1 8.7251 -3.79493 -47.0469 0 0 0 
53 2 1 18.5546 3.68398 -48.2768 0 0 0 
54 3 1 16.1953 5.66937 -46.0213 0 0 0 
75 3 1 -0.83378 4.47231 -37.4851 0 0 0 
78 3 1 -5.04497 1.82035 -34.2032 0 0 0 
69 3 1 0.00426449 -5.96732 -45.647 0 0 0 
74 2 1 -0.290821 0.707733 -37.653 0 0 0 
73 1 1 3.16832 -1.49351 -37.536 0 0 0 
76 1 1 2.07748 -0.539437 -33.9489 0 0 0 
70 1 1 5.11972 -2.5108 -40.5713 0 0 0 
77 2 1 -1.32923 1.06974 -33.8513 0 0 0 
72 3 1 9.77875 -3.92478 -34.8736 0 0 0 
71 2 1 8.33136 -2.32722 -38.0581 0 0 0 
86 2 1 0.157574 1.96575 -21.2593 0 0 0 
81 3 1 -0.902915 5.32834 -26.2236 0 0 0 
80 2 1 -0.314811 2.34256 -27.8421 0 0 0 
83 2 1 6.49457 -1.78677 -25.0944 0 0 0 
85 1 1 2.48386 -0.80757 -22.9273 0 0 0 
82 1 1 2.96623 -0.574364 -26.6086 0 0 0 
79 1 1 1.97409 -0.0630217 -30.194 0 0 0 
84 3 1 10.1111 -0.612282 -24.865 0 0 0 
87 3 1 -0.826789 5.24214 -19.949 0 0 0 
94 1 1 1.95949 -2.82192 -11.7015 0 0 0 
88 1 1 3.06756 -1.36215 -19.0919 0 0 0 
90 3 1 10.2065 1.03022 -17.4373 0 0 0 
89 2 1 6.95537 -0.861593 -17.8988 0 0 0 
91 1 1 2.28083 -2.23602 -15.411 0 0 0 
92 2 1 -1.33938 -3.99893 -14.7772 0 0 0 
93 3 1 -4.79928 -4.38867 -15.6281 0 0 0 
97 1 1 0.162088 -3.30214 -8.40541 0 0 0 
99 3 1 -6.23209 -6.36994 -7.82188 0 0 0 
100 1 1 -1.04285 -2.82551 -4.80212 0 0 0 
98 2 1 -2.52005 -5.61589 -7.54157 0 0 0 
103 1 1 -2.33523 -3.88852 -1.38176 0 0 0 
104 2 1 -3.64489 -7.77631 -1.40765 0 0 0 
101 2 1 -1.38616 0.139817 -2.00204 0 0 0 
95 2 1 4.48493 -3.2736 -8.55465 0 0 0 
96 3 1 6.72278 -1.86515 -5.81885 0 0 0 
102 3 1 -0.973502 1.86396 1.27111 0 0 0 
117 3 1 -18.0786 -9.52878 5.73555 0 0 0 
113 2 1 -12.4431 -8.23284 4.27444 0 0 0 
114 3 1 -13.9346 -9.56385 0.922771 0 0 0 
116 2 1 -15.0171 -10.3113 7.92943 0 0 0 
115 1 1 -12.0325 -7.90048 9.33707 0 0 0 
106 1 1 -4.06418 -4.04429 2.11281 0 0 0 
105 3 1 -1.24871 -10.6684 -0.93953 0 0 0 
112 1 1 -9.65752 -6.47985 6.69976 0 0 0 
109 1 1 -6.59313 -5.02194 4.93002 0 0 0 
110 2 1 -6.4061 -3.41702 8.65676 0 0 0 
107 2 1 -2.54983 -2.5428 5.71165 0 0 0 
108 3 1 -1.68024 -1.80089 8.99253 0 0 0 
129 3 1 -25.7425 -18.3242 13.9248 0 0 0 
128 2 1 -24.2528 -17.2592 16.9393 0 0 0 
123 3 1 -19.0704 -17.2851 13.5302 0 0 0 
122 2 1 -17.8876 -14.0354 12.8168 0 0 0 
127 1 1 -22.0855 -14.2506 18.8582 0 0 0 
118 1 1 -13.7247 -8.96335 12.6397 0 0 0 
119 2 1 -14.0033 -7.48716 16.4109 0 0 0 
121 1 1 -16.3565 -11.1286 14.6952 0 0 0 
124 1 1 -19.0674 -12.6909 16.9399 0 0 0 
111 3 1 -8.17424 -2.05534 11.6417 0 0 0 