ITEM: TIMESTEP
0
ITEM: NUMBER OF ATOMS
210
ITEM: BOX BOUNDS pp pp pp
-185.458 185.458
-185.458 185.458
-185.458 185.458
ITEM: ATOMS id type mol x y z ix iy iz 
3 3 1 -27.09 -25.6548 -118.788 0 0 0 
5 2 1 -16.1414 -25.0944 -119.281 0 0 0 
6 3 1 -12.5542 -26.0653 -118.456 0 0 0 
1 1 1 -20.2544 -24.8904 -121.902 0 0 0 
2 2 1 -23.6439 -24.9489 -120.031 0 0 0 
4 1 1 -19.6689 -24.1552 -118.384 0 0 0 
9 3 1 -25.9189 -24.1845 -111.752 0 0 0 
7 1 1 -19.0834 -23.4201 -114.865 0 0 0 
8 2 1 -22.4729 -23.4785 -112.994 0 0 0 
10 1 1 -18.4978 -22.6849 -111.347 0 0 0 
13 1 1 -17.9123 -21.9497 -107.828 0 0 0 
14 2 1 -21.3018 -22.0082 -105.957 0 0 0 
11 2 1 -14.9704 -23.6241 -112.245 0 0 0 
12 3 1 -11.3831 -24.595 -111.419 0 0 0 
15 3 1 -24.7479 -22.7141 -104.715 0 0 0 
16 1 1 -17.3268 -21.2146 -104.31 0 0 0 
19 1 1 -16.7412 -20.4794 -100.792 0 0 0 
20 2 1 -20.1307 -20.5379 -98.9203 0 0 0 
21 3 1 -23.5768 -21.2438 -97.6781 0 0 0 
22 1 1 -16.1557 -19.7443 -97.2732 0 0 0 
17 2 1 -13.7993 -22.1538 -105.208 0 0 0 
18 3 1 -10.2121 -23.1246 -104.382 0 0 0 
23 2 1 -12.6282 -20.6834 -98.1709 0 0 0 
24 3 1 -9.04103 -21.6543 -97.3458 0 0 0 
25 1 1 -15.5702 -19.0091 -93.7548 0 0 0 
26 2 1 -18.9597 -19.0676 -91.8835 0 0 0 
27 3 1 -22.4058 -19.7735 -90.6412 0 0 0 
28 1 1 -14.9846 -18.2739 -90.2364 0 0 0 
29 2 1 -11.4572 -19.2131 -91.1341 0 0 0 
30 3 1 -7.86996 -20.184 -90.309 0 0 0 
31 1 1 -14.3991 -17.5388 -86.718 0 0 0 
32 2 1 -17.7886 -17.5972 -84.8467 0 0 0 
33 3 1 -21.2347 -18.3032 -83.6044 0 0 0 
38 2 1 -16.6176 -16.1269 -77.8099 0 0 0 
39 3 1 -20.0636 -16.8328 -76.5677 0 0 0 
34 1 1 -13.8136 -16.8036 -83.1996 0 0 0 
35 2 1 -10.2861 -17.7428 -84.0973 0 0 0 
36 3 1 -6.6989 -18.7136 -83.2722 0 0 0 
37 1 1 -13.228 -16.0684 -79.6812 0 0 0 
40 1 1 -12.6425 -15.3333 -76.1628 0 0 0 
41 2 1 -9.11506 -16.2724 -77.0605 0 0 0 
42 3 1 -5.52784 -17.2433 -76.2353 0 0 0 
45 3 1 -18.8926 -15.3625 -69.5309 0 0 0 
48 3 1 -4.35678 -15.773 -69.1985 0 0 0 
44 2 1 -15.4465 -14.6566 -70.7731 0 0 0 
43 1 1 -12.057 -14.5981 -72.6444 0 0 0 
46 1 1 -11.4715 -13.8629 -69.126 0 0 0 
47 2 1 -7.944 -14.8021 -70.0237 0 0 0 
49 1 1 -10.8859 -13.1278 -65.6076 0 0 0 
51 3 1 -17.7215 -13.8922 -62.4941 0 0 0 
57 3 1 -16.5505 -12.4218 -55.4573 0 0 0 
50 2 1 -14.2754 -13.1863 -63.7363 0 0 0 
52 1 1 -10.3004 -12.3926 -62.0892 0 0 0 
53 2 1 -6.77294 -13.3318 -62.9869 0 0 0 
55 1 1 -9.71487 -11.6575 -58.5708 0 0 0 
56 2 1 -13.1044 -11.7159 -56.6995 0 0 0 
59 2 1 -5.60187 -11.8615 -55.9501 0 0 0 
54 3 1 -3.18572 -14.3027 -62.1617 0 0 0 
63 3 1 -15.3794 -10.9515 -48.4205 0 0 0 
58 1 1 -9.12934 -10.9223 -55.0524 0 0 0 
61 1 1 -8.54381 -10.1871 -51.534 0 0 0 
62 2 1 -11.9333 -10.2456 -49.6627 0 0 0 
64 1 1 -7.95828 -9.45196 -48.0156 0 0 0 
60 3 1 -2.01466 -12.8323 -55.1249 0 0 0 
65 2 1 -4.43081 -10.3911 -48.9133 0 0 0 
66 3 1 -0.843596 -11.362 -48.0881 0 0 0 
67 1 1 -7.37275 -8.7168 -44.4972 0 0 0 
68 2 1 -10.7623 -8.77528 -42.6259 0 0 0 
69 3 1 -14.2083 -9.4812 -41.3836 0 0 0 
70 1 1 -6.78722 -7.98163 -40.9788 0 0 0 
73 1 1 -6.20169 -7.24647 -37.4604 0 0 0 
74 2 1 -9.59121 -7.30495 -35.5891 0 0 0 
71 2 1 -3.25975 -8.92082 -41.8765 0 0 0 
72 3 1 0.327464 -9.89168 -41.0513 0 0 0 
75 3 1 -13.0373 -8.01088 -34.3468 0 0 0 
76 1 1 -5.61616 -6.51131 -33.942 0 0 0 
79 1 1 -5.03063 -5.77614 -30.4236 0 0 0 
80 2 1 -8.42014 -5.83463 -28.5523 0 0 0 
81 3 1 -11.8662 -6.54055 -27.31 0 0 0 
77 2 1 -2.08869 -7.45049 -34.8397 0 0 0 
78 3 1 1.49853 -8.42135 -34.0145 0 0 0 
82 1 1 -4.4451 -5.04098 -26.9052 0 0 0 
83 2 1 -0.91763 -5.98017 -27.8029 0 0 0 
84 3 1 2.66959 -6.95103 -26.9778 0 0 0 
87 3 1 -10.6951 -5.07022 -20.2732 0 0 0 
90 3 1 3.84065 -5.4807 -19.9409 0 0 0 
86 2 1 -7.24908 -4.3643 -21.5155 0 0 0 
85 1 1 -3.85956 -4.30582 -23.3868 0 0 0 
88 1 1 -3.27403 -3.57065 -19.8684 0 0 0 
89 2 1 0.253431 -4.50984 -20.7661 0 0 0 
91 1 1 -2.6885 -2.83549 -16.35 0 0 0 
92 2 1 -6.07802 -2.89397 -14.4787 0 0 0 
93 3 1 -9.52409 -3.5999 -13.2364 0 0 0 
99 3 1 -8.35303 -2.12957 -6.19964 0 0 0 
94 1 1 -2.10297 -2.10033 -12.8316 0 0 0 
95 2 1 1.42449 -3.03951 -13.7293 0 0 0 
96 3 1 5.01171 -4.01037 -12.9041 0 0 0 
97 1 1 -1.51744 -1.36516 -9.31319 0 0 0 
98 2 1 -4.90696 -1.42365 -7.44193 0 0 0 
100 1 1 -0.931911 -0.629998 -5.79479 0 0 0 
101 2 1 2.59555 -1.56918 -6.69249 0 0 0 
102 3 1 6.18277 -2.54004 -5.86735 0 0 0 
105 3 1 -7.18197 -0.659241 0.837158 0 0 0 
103 1 1 -0.34638 0.105164 -2.27638 0 0 0 
104 2 1 -3.7359 0.046681 -0.405124 0 0 0 
106 1 1 0.23915 0.840328 1.24202 0 0 0 
107 2 1 3.76661 -0.098857 0.344313 0 0 0 
109 1 1 0.82468 1.57549 4.76042 0 0 0 
108 3 1 7.35383 -1.06972 1.16945 0 0 0 
111 3 1 -6.01091 0.811085 7.87396 0 0 0 
110 2 1 -2.56484 1.51701 6.63168 0 0 0 
112 1 1 1.41021 2.31066 8.27882 0 0 0 
113 2 1 4.93768 1.37147 7.38111 0 0 0 
115 1 1 1.99574 3.04582 11.7972 0 0 0 
116 2 1 -1.39377 2.98733 13.6685 0 0 0 
117 3 1 -4.83985 2.28141 14.9108 0 0 0 
114 3 1 8.52489 0.400609 8.20626 0 0 0 
119 2 1 6.10874 2.8418 14.4179 0 0 0 
118 1 1 2.58127 3.78098 15.3156 0 0 0 
121 1 1 3.1668 4.51615 18.834 0 0 0 
122 2 1 -0.222713 4.45766 20.7053 0 0 0 
123 3 1 -3.66878 3.75174 21.9476 0 0 0 
120 3 1 9.69595 1.87094 15.2431 0 0 0 
125 2 1 7.2798 4.31212 21.4547 0 0 0 
126 3 1 10.867 3.34126 22.2798 0 0 0 
124 1 1 3.75233 5.25131 22.3524 0 0 0 
132 3 1 12.0381 4.81159 29.3167 0 0 0 
127 1 1 4.33786 5.98647 25.8708 0 0 0 
128 2 1 0.948347 5.92799 27.7421 0 0 0 
129 3 1 -2.49772 5.22207 28.9844 0 0 0 
130 1 1 4.9234 6.72164 29.3892 0 0 0 
134 2 1 2.11941 7.39832 34.7789 0 0 0 
131 2 1 8.45086 5.78245 28.4915 0 0 0 
133 1 1 5.50893 7.4568 32.9076 0 0 0 
135 3 1 -1.32666 6.69239 36.0212 0 0 0 
140 2 1 3.29047 8.86864 41.8157 0 0 0 
141 3 1 -0.155599 8.16272 43.058 0 0 0 
136 1 1 6.09446 8.19196 36.426 0 0 0 
137 2 1 9.62192 7.25278 35.5283 0 0 0 
138 3 1 13.2091 6.28192 36.3535 0 0 0 
139 1 1 6.67999 8.92713 39.9444 0 0 0 
142 1 1 7.26552 9.66229 43.4628 0 0 0 
143 2 1 10.793 8.72311 42.5651 0 0 0 
144 3 1 14.3802 7.75224 43.3903 0 0 0 
146 2 1 4.46153 10.339 48.8525 0 0 0 
147 3 1 1.01546 9.63305 50.0948 0 0 0 
145 1 1 7.85105 10.3974 46.9812 0 0 0 
148 1 1 8.43658 11.1326 50.4996 0 0 0 
149 2 1 11.964 10.1934 49.6019 0 0 0 
151 1 1 9.02211 11.8678 54.018 0 0 0 
150 3 1 15.5513 9.22257 50.4271 0 0 0 
153 3 1 2.18652 11.1034 57.1316 0 0 0 
159 3 1 3.35758 12.5737 64.1684 0 0 0 
152 2 1 5.63259 11.8093 55.8893 0 0 0 
154 1 1 9.60764 12.6029 57.5364 0 0 0 
155 2 1 13.1351 11.6638 56.6387 0 0 0 
157 1 1 10.1932 13.3381 61.0548 0 0 0 
158 2 1 6.80365 13.2796 62.9261 0 0 0 
160 1 1 10.7787 14.0733 64.5732 0 0 0 
161 2 1 14.3062 13.1341 63.6755 0 0 0 
156 3 1 16.7223 10.6929 57.4639 0 0 0 
162 3 1 17.8934 12.1632 64.5007 0 0 0 
165 3 1 4.52865 14.044 71.2052 0 0 0 
163 1 1 11.3642 14.8084 68.0916 0 0 0 
164 2 1 7.97472 14.75 69.9629 0 0 0 
167 2 1 15.4772 14.6044 70.7123 0 0 0 
168 3 1 19.0644 13.6335 71.5375 0 0 0 
166 1 1 11.9498 15.5436 71.61 0 0 0 
169 1 1 12.5353 16.2788 75.1284 0 0 0 
170 2 1 9.14578 16.2203 76.9997 0 0 0 
171 3 1 5.69971 15.5144 78.242 0 0 0 
172 1 1 13.1208 17.0139 78.6468 0 0 0 
175 1 1 13.7064 17.7491 82.1652 0 0 0 
176 2 1 10.3168 17.6906 84.0365 0 0 0 
173 2 1 16.6483 16.0747 77.7491 0 0 0 
174 3 1 20.2355 15.1039 78.5743 0 0 0 
179 2 1 17.8194 17.5451 84.7859 0 0 0 
177 3 1 6.87077 16.9847 85.2788 0 0 0 
178 1 1 14.2919 18.4842 85.6836 0 0 0 
181 1 1 14.8774 19.2194 89.202 0 0 0 
182 2 1 11.4879 19.1609 91.0733 0 0 0 
183 3 1 8.04183 18.455 92.3156 0 0 0 
180 3 1 21.4066 16.5742 85.6111 0 0 0 
184 1 1 15.4629 19.9546 92.7204 0 0 0 
185 2 1 18.9904 19.0154 91.8227 0 0 0 
186 3 1 22.5776 18.0445 92.6479 0 0 0 
188 2 1 12.659 20.6313 98.1101 0 0 0 
189 3 1 9.21289 19.9253 99.3524 0 0 0 
194 2 1 13.83 22.1016 105.147 0 0 0 
187 1 1 16.0485 20.6897 96.2388 0 0 0 
190 1 1 16.634 21.4249 99.7572 0 0 0 
191 2 1 20.1615 20.4857 98.8595 0 0 0 
192 3 1 23.7487 19.5149 99.6847 0 0 0 
193 1 1 17.2195 22.1601 103.276 0 0 0 
195 3 1 10.384 21.3957 106.389 0 0 0 
200 2 1 15.0011 23.5719 112.184 0 0 0 
201 3 1 11.555 22.866 113.426 0 0 0 
196 1 1 17.8051 22.8952 106.794 0 0 0 
197 2 1 21.3325 21.956 105.896 0 0 0 
198 3 1 24.9198 20.9852 106.721 0 0 0 
199 1 1 18.3906 23.6304 110.312 0 0 0 
202 1 1 18.9761 24.3656 113.831 0 0 0 
203 2 1 22.5036 23.4264 112.933 0 0 0 
204 3 1 26.0908 22.4555 113.758 0 0 0 
207 3 1 12.7261 24.3363 120.463 0 0 0 
206 2 1 16.1721 25.0422 119.22 0 0 0 
209 2 1 23.6747 24.8967 119.97 0 0 0 
210 3 1 27.2619 23.9258 120.795 0 0 0 
205 1 1 19.5617 25.1007 117.349 0 0 0 
208 1 1 20.1472 25.8359 120.868 0 0 0 
ITEM: TIMESTEP
100000
ITEM: NUMBER OF ATOMS
210
ITEM: BOX BOUNDS pp pp pp
-185.458 185.458
-185.458 185.458
-185.458 185.458
ITEM: ATOMS id type mol x y z ix iy iz 
1 1 1 -0.722612 -16.0732 -120.98 0 0 0 
3 3 1 3.97809 -18.3235 -115.55 0 0 0 
2 2 1 2.23129 -16.9957 -118.378 0 0 0 
6 3 1 4.38495 -12.779 -113.825 0 0 0 
5 2 1 1.16549 -13.0635 -115.231 0 0 0 
10 1 1 -4.04869 -11.0454 -111.168 0 0 0 
11 2 1 -4.40334 -6.95854 -111.577 0 0 0 
8 2 1 -7.85699 -13.6628 -113.71 0 0 0 
13 1 1 -3.90695 -10.06 -107.331 0 0 0 
9 3 1 -10.5282 -11.2799 -112.722 0 0 0 
4 1 1 -1.87124 -14.5033 -117.612 0 0 0 
7 1 1 -3.85678 -12.9769 -114.543 0 0 0 
12 3 1 -5.97851 -3.68244 -112.718 0 0 0 
14 2 1 -1.98583 -6.43442 -106.985 0 0 0 
16 1 1 -4.41206 -9.04428 -103.58 0 0 0 
19 1 1 -5.45322 -9.65243 -99.7237 0 0 0 
20 2 1 -7.68932 -13.0556 -99.2311 0 0 0 
17 2 1 -4.60407 -5.57101 -101.846 0 0 0 
18 3 1 -5.21933 -1.88261 -101.987 0 0 0 
15 3 1 -1.59701 -2.70308 -107.201 0 0 0 
30 3 1 1.32078 -10.2839 -84.7294 0 0 0 
21 3 1 -10.0366 -16.1103 -99.2073 0 0 0 
22 1 1 -6.50404 -9.39418 -96.013 0 0 0 
25 1 1 -6.4558 -9.58274 -92.112 0 0 0 
28 1 1 -5.67137 -9.53233 -88.232 0 0 0 
29 2 1 -2.17667 -10.6375 -86.3629 0 0 0 
26 2 1 -10.1338 -8.95698 -90.401 0 0 0 
27 3 1 -13.4516 -10.0597 -89.8912 0 0 0 
23 2 1 -8.26212 -6.11474 -94.3454 0 0 0 
24 3 1 -11.3248 -3.77973 -93.8271 0 0 0 
33 3 1 -3.64158 -11.2845 -77.8517 0 0 0 
32 2 1 -4.23854 -10.8409 -81.5271 0 0 0 
31 1 1 -6.52397 -9.02848 -84.5034 0 0 0 
34 1 1 -7.68351 -7.46237 -81.2413 0 0 0 
35 2 1 -10.6707 -4.72558 -80.868 0 0 0 
37 1 1 -7.78944 -6.81051 -77.4846 0 0 0 
36 3 1 -12.0999 -1.63029 -80.1734 0 0 0 
42 3 1 -14.9721 -3.39698 -74.2185 0 0 0 
40 1 1 -8.6041 -6.46982 -73.6848 0 0 0 
43 1 1 -8.82497 -6.38865 -69.8049 0 0 0 
44 2 1 -5.44989 -7.46281 -68.0167 0 0 0 
41 2 1 -11.6994 -4.68662 -72.8309 0 0 0 
38 2 1 -4.1678 -6.47901 -76.0986 0 0 0 
39 3 1 -0.604816 -7.51736 -75.1745 0 0 0 
45 3 1 -2.43243 -9.88905 -67.9121 0 0 0 
46 1 1 -8.68556 -6.3517 -66.0115 0 0 0 
49 1 1 -9.05051 -6.62065 -62.1328 0 0 0 
47 2 1 -5.70861 -4.2313 -64.4475 0 0 0 
52 1 1 -8.34063 -5.31568 -58.5817 0 0 0 
50 2 1 -10.0412 -9.24547 -59.2768 0 0 0 
51 3 1 -9.42209 -9.8646 -55.9433 0 0 0 
48 3 1 -3.17317 -2.01486 -63.4511 0 0 0 
53 2 1 -7.87818 -1.40735 -57.6317 0 0 0 
55 1 1 -7.67138 -5.04492 -54.8141 0 0 0 
58 1 1 -6.79991 -4.65634 -51.025 0 0 0 
56 2 1 -5.08385 -7.97582 -53.5075 0 0 0 
57 3 1 -1.80975 -9.58396 -53.2261 0 0 0 
61 1 1 -5.10802 -4.72473 -47.5245 0 0 0 
54 3 1 -7.64501 1.53441 -55.0749 0 0 0 
60 3 1 -10.0743 0.485343 -46.4146 0 0 0 
59 2 1 -8.03689 -1.42511 -48.7341 0 0 0 
63 3 1 1.6521 -8.50832 -47.6953 0 0 0 
62 2 1 -1.26923 -6.10687 -47.002 0 0 0 
64 1 1 -4.92882 -4.74657 -43.7 0 0 0 
67 1 1 -3.27514 -5.43575 -40.1165 0 0 0 
70 1 1 -2.21156 -5.88489 -36.4497 0 0 0 
69 3 1 3.17327 -8.94972 -40.847 0 0 0 
68 2 1 -0.239617 -7.91363 -40.2888 0 0 0 
72 3 1 4.29055 -8.4002 -34.1053 0 0 0 
66 3 1 -9.48419 -4.96181 -38.745 0 0 0 
65 2 1 -7.32934 -3.81706 -41.4271 0 0 0 
71 2 1 1.17174 -7.92001 -35.7403 0 0 0 
78 3 1 6.59866 -10.4862 -29.5173 0 0 0 
77 2 1 3.37004 -8.89835 -28.1552 0 0 0 
75 3 1 -6.03198 -1.92982 -27.7511 0 0 0 
74 2 1 -4.4752 -4.73293 -29.8947 0 0 0 
73 1 1 -1.90792 -6.27623 -32.5898 0 0 0 
76 1 1 -0.217202 -7.38232 -29.034 0 0 0 
79 1 1 -0.366201 -7.15437 -25.1348 0 0 0 
83 2 1 0.555283 -9.7966 -19.5344 0 0 0 
84 3 1 1.94923 -12.7393 -18.3563 0 0 0 
81 3 1 -4.96421 -3.56724 -22.4502 0 0 0 
80 2 1 -3.82655 -7.12004 -23.0228 0 0 0 
82 1 1 -0.03428 -6.96288 -21.3253 0 0 0 
85 1 1 -0.119378 -5.59574 -17.7443 0 0 0 
88 1 1 -0.792363 -3.94004 -14.2423 0 0 0 
86 2 1 0.995778 -7.95695 -14.6971 0 0 0 
87 3 1 3.47693 -10.8963 -14.1218 0 0 0 
89 2 1 -2.18993 -0.350992 -13.4667 0 0 0 
91 1 1 -1.08118 -3.31905 -10.4719 0 0 0 
95 2 1 -1.45697 2.68868 -7.32794 0 0 0 
93 3 1 0.508505 -9.23824 -6.13527 0 0 0 
92 2 1 -0.0268214 -6.19321 -7.78402 0 0 0 
97 1 1 -0.955682 -0.160549 -3.39672 0 0 0 
94 1 1 -1.0936 -1.341 -7.08433 0 0 0 
90 3 1 -2.63393 2.53966 -15.7122 0 0 0 
96 3 1 -2.88248 4.44697 -10.4454 0 0 0 
98 2 1 -0.904775 -3.03572 -0.611558 0 0 0 
100 1 1 -0.505738 2.24309 -0.251801 0 0 0 
99 3 1 2.26706 -4.57072 1.11598 0 0 0 
102 3 1 5.05326 -1.23364 2.53316 0 0 0 
101 2 1 2.32391 0.823435 2.12707 0 0 0 
103 1 1 -0.305131 5.43335 2.15232 0 0 0 
104 2 1 -1.95207 8.27757 0.0997035 0 0 0 
105 3 1 -3.94293 10.6859 -1.79963 0 0 0 
112 1 1 0.581482 11.4836 11.8318 0 0 0 
106 1 1 0.280421 8.02899 5.06995 0 0 0 
109 1 1 -0.257912 9.71949 8.595 0 0 0 
110 2 1 -3.69487 9.38239 10.7451 0 0 0 
107 2 1 3.85476 9.38428 5.68982 0 0 0 
108 3 1 6.99135 11.0741 5.17146 0 0 0 
113 2 1 3.97556 13.3764 12.5464 0 0 0 
114 3 1 7.10548 13.6567 14.7464 0 0 0 
117 3 1 -4.35329 16.9899 18.469 0 0 0 
115 1 1 0.258025 12.6105 15.4972 0 0 0 
116 2 1 -2.81971 13.9436 17.7739 0 0 0 
121 1 1 1.96475 13.8576 23.0957 0 0 0 
118 1 1 1.56993 13.4501 19.1783 0 0 0 
122 2 1 1.18146 10.5998 25.3205 0 0 0 
119 2 1 4.66914 16.1388 19.3013 0 0 0 
111 3 1 -6.25667 8.63307 13.2209 0 0 0 
120 3 1 7.87188 17.3158 18.7603 0 0 0 
123 3 1 -0.358753 8.35952 27.982 0 0 0 
126 3 1 8.68718 18.4573 26.6099 0 0 0 
134 2 1 -4.9622 16.1303 37.9525 0 0 0 
135 3 1 -8.05775 14.0437 38.2144 0 0 0 
124 1 1 2.16867 15.6832 26.5202 0 0 0 
128 2 1 2.21313 21.4025 30.8567 0 0 0 
129 3 1 1.92015 24.761 30.2377 0 0 0 
125 2 1 5.58833 17.5841 27.9252 0 0 0 
127 1 1 1.18585 17.5144 29.9425 0 0 0 
130 1 1 -0.278062 18.6535 33.4243 0 0 0 
136 1 1 -4.1073 20.3794 39.952 0 0 0 
133 1 1 -2.3582 19.1357 36.6622 0 0 0 
137 2 1 -7.77268 22.2 39.9188 0 0 0 
138 3 1 -10.9934 22.422 37.719 0 0 0 
139 1 1 -5.13569 20.6942 43.7123 0 0 0 
140 2 1 -5.82175 24.2444 45.4773 0 0 0 
132 3 1 5.63323 21.3154 35.1438 0 0 0 
131 2 1 2.19583 20.9898 35.7199 0 0 0 
155 2 1 5.31949 20.0819 60.4438 0 0 0 
154 1 1 2.27346 18.125 58.4208 0 0 0 
159 3 1 10.9379 19.7821 59.9001 0 0 0 
158 2 1 8.52646 16.7782 60.4685 0 0 0 
142 1 1 -5.6257 20.1626 47.5443 0 0 0 
141 3 1 -6.72378 27.5683 45.8703 0 0 0 
144 3 1 -12.5134 20.8158 49.9251 0 0 0 
143 2 1 -9.29341 21.327 48.6069 0 0 0 
145 1 1 -5.93895 20.5545 51.4882 0 0 0 
146 2 1 -8.60917 21.2976 54.1489 0 0 0 
151 1 1 -0.92446 19.8825 57.185 0 0 0 
148 1 1 -3.76859 20.4516 54.7204 0 0 0 
156 3 1 7.16835 20.5282 63.7755 0 0 0 
168 3 1 7.12529 1.05113 60.516 0 0 0 
167 2 1 6.93201 2.77673 63.6361 0 0 0 
165 3 1 5.38607 4.96289 58.3382 0 0 0 
171 3 1 5.08005 7.28542 73.1036 0 0 0 
170 2 1 8.09506 5.4589 72.3764 0 0 0 
164 2 1 8.06653 5.94678 60.5779 0 0 0 
169 1 1 7.45304 4.12636 68.5528 0 0 0 
166 1 1 7.75712 6.34423 65.3362 0 0 0 
157 1 1 4.96671 15.429 59.3951 0 0 0 
161 2 1 9.92834 10.5384 58.9963 0 0 0 
160 1 1 7.1682 12.3684 60.3857 0 0 0 
162 3 1 11.5054 8.26316 56.8874 0 0 0 
163 1 1 7.69417 9.28451 62.7419 0 0 0 
150 3 1 -6.21768 23.507 61.2152 0 0 0 
147 3 1 -10.6599 23.2806 56.0658 0 0 0 
152 2 1 0.190898 21.3204 60.9835 0 0 0 
153 3 1 1.8355 23.5466 63.1872 0 0 0 
149 2 1 -5.46527 21.2128 58.2457 0 0 0 
176 2 1 4.46563 -6.10379 69.323 0 0 0 
177 3 1 3.68648 -7.99078 66.3069 0 0 0 
175 1 1 6.23932 -2.96174 71.1689 0 0 0 
178 1 1 5.41298 -5.88049 73.2955 0 0 0 
179 2 1 2.57113 -8.36158 72.524 0 0 0 
180 3 1 -0.851929 -8.69764 71.0495 0 0 0 
173 2 1 7.55871 0.0414737 74.1797 0 0 0 
174 3 1 8.84853 -0.469966 77.7481 0 0 0 
172 1 1 7.20902 0.632603 70.189 0 0 0 
185 2 1 0.888585 -12.339 80.252 0 0 0 
181 1 1 5.32925 -8.08365 76.3454 0 0 0 
184 1 1 4.28273 -10.4859 79.2777 0 0 0 
187 1 1 5.14882 -12.0489 82.7245 0 0 0 
186 3 1 -2.45263 -13.2971 80.6023 0 0 0 
188 2 1 8.8846 -11.3053 84.0571 0 0 0 
182 2 1 8.39161 -9.66554 78.4732 0 0 0 
183 3 1 10.9198 -12.478 79.1269 0 0 0 
189 3 1 12.471 -12.4261 83.7959 0 0 0 
192 3 1 1.81599 -17.0702 92.0513 0 0 0 
191 2 1 3.35882 -15.2607 89.0411 0 0 0 
193 1 1 7.55733 -12.4737 89.6075 0 0 0 
194 2 1 9.8461 -9.30633 89.3159 0 0 0 
190 1 1 5.50345 -12.9 86.4842 0 0 0 
196 1 1 9.07389 -12.3905 93.1995 0 0 0 
195 3 1 12.6275 -7.11734 87.8925 0 0 0 
199 1 1 10.6443 -10.8413 96.5493 0 0 0 
202 1 1 13.0931 -8.36605 98.4145 0 0 0 
198 3 1 11.1992 -17.6671 97.7474 0 0 0 
201 3 1 9.89352 -15.0769 102.699 0 0 0 
197 2 1 9.52326 -15.8214 95.3077 0 0 0 
200 2 1 9.63839 -12.472 100.105 0 0 0 
203 2 1 13.9812 -8.42974 102.229 0 0 0 
206 2 1 17.7069 -3.35583 96.6135 0 0 0 
207 3 1 19.91 -2.22121 93.6254 0 0 0 
205 1 1 15.7225 -5.57436 99.2128 0 0 0 
204 3 1 12.1825 -8.81521 105.117 0 0 0 
209 2 1 18.0529 -5.47248 105.825 0 0 0 
208 1 1 18.2446 -4.37507 101.95 0 0 0 
210 3 1 17.8084 -7.58647 108.569 0 0 0 
ITEM: TIMESTEP
200000
ITEM: NUMBER OF ATOMS
210
ITEM: BOX BOUNDS pp pp pp
-185.458 185.458
-185.458 185.458
-185.458 185.458
ITEM: ATOMS id type mol x y z ix iy iz 
42 3 1 -18.8781 3.33602 -71.4168 0 0 0 
41 2 1 -18.0093 1.33353 -68.1918 0 0 0 
39 3 1 -15.5603 -3.03487 -72.6739 0 0 0 
38 2 1 -13.8742 -1.66127 -69.9702 0 0 0 
36 3 1 -10.6609 -5.48006 -72.5711 0 0 0 
35 2 1 -8.94925 -2.76216 -70.6476 0 0 0 
37 1 1 -11.3093 -0.211248 -67.3564 0 0 0 
34 1 1 -7.59527 -0.909645 -67.8336 0 0 0 
32 2 1 -3.37141 -3.10219 -69.7372 0 0 0 
33 3 1 -2.59989 -5.59395 -72.3231 0 0 0 
31 1 1 -3.99797 -0.930542 -66.3759 0 0 0 
21 3 1 10.2498 3.83726 -62.8331 0 0 0 
30 3 1 -8.32283 2.32201 -61.4571 0 0 0 
29 2 1 -4.60542 1.11759 -61.7677 0 0 0 
17 2 1 8.09198 -4.81245 -55.4581 0 0 0 
18 3 1 8.72554 -8.25817 -54.1333 0 0 0 
45 3 1 -24.2601 0.21315 -66.1776 0 0 0 
44 2 1 -21.5317 2.45654 -65.0685 0 0 0 
46 1 1 -19.5393 4.17128 -60.7697 0 0 0 
43 1 1 -17.635 2.40707 -63.5479 0 0 0 
40 1 1 -14.7871 0.870244 -65.749 0 0 0 
23 2 1 1.02832 -0.827312 -57.5772 0 0 0 
25 1 1 2.19275 0.501835 -62.0787 0 0 0 
28 1 1 -1.24141 -0.0806825 -63.7622 0 0 0 
26 2 1 3.64259 2.342 -65.3508 0 0 0 
27 3 1 4.83696 5.00012 -67.9059 0 0 0 
19 1 1 8.01544 -0.892152 -57.0452 0 0 0 
22 1 1 4.69522 -0.505737 -59.2346 0 0 0 
16 1 1 10.9422 -1.9789 -54.7113 0 0 0 
20 2 1 8.67761 2.06359 -59.9351 0 0 0 
15 3 1 12.9137 5.08055 -55.662 0 0 0 
14 2 1 13.8788 1.62741 -54.7325 0 0 0 
13 1 1 14.1424 -1.39406 -52.8645 0 0 0 
8 2 1 21.5396 -1.9547 -52.6179 0 0 0 
9 3 1 19.3728 -0.148689 -54.8143 0 0 0 
53 2 1 -28.8788 3.74671 -55.8271 0 0 0 
54 3 1 -31.0377 0.842026 -56.5208 0 0 0 
52 1 1 -25.0585 4.90002 -55.4087 0 0 0 
47 2 1 -22.1309 7.0373 -62.0605 0 0 0 
49 1 1 -21.721 4.6621 -57.6532 0 0 0 
48 3 1 -23.8575 10.0955 -61.624 0 0 0 
3 3 1 27.3955 1.27405 -47.7696 0 0 0 
24 3 1 -0.989604 0.8488 -54.812 0 0 0 
12 3 1 11.9661 -3.74802 -46.3792 0 0 0 
11 2 1 14.7061 -2.68835 -48.2506 0 0 0 
10 1 1 17.3211 -2.28827 -50.648 0 0 0 
7 1 1 20.5666 -3.40341 -49.0572 0 0 0 
4 1 1 23.0716 -4.79033 -46.3413 0 0 0 
6 3 1 16.9857 -7.31879 -43.1351 0 0 0 
5 2 1 19.6095 -5.873 -45.1108 0 0 0 
56 2 1 -30.6838 5.93463 -52.2873 0 0 0 
57 3 1 -33.5771 5.6181 -54.0773 0 0 0 
55 1 1 -26.6181 6.54261 -52.3582 0 0 0 
58 1 1 -27.4715 8.63284 -49.335 0 0 0 
61 1 1 -27.8127 11.2372 -46.5317 0 0 0 
51 3 1 -21.4465 8.72787 -51.295 0 0 0 
50 2 1 -20.9692 6.55475 -54.1148 0 0 0 
59 2 1 -24.0751 9.1272 -47.1056 0 0 0 
1 1 1 26.3981 -5.33395 -44.3092 0 0 0 
2 2 1 27.9323 -2.1934 -46.6268 0 0 0 
60 3 1 -20.9342 7.05182 -46.0812 0 0 0 
64 1 1 -26.869 13.0688 -43.3658 0 0 0 
62 2 1 -31.5425 12.7197 -45.6825 0 0 0 
65 2 1 -29.5329 13.2072 -40.5637 0 0 0 
63 3 1 -34.6477 13.1609 -43.6639 0 0 0 
66 3 1 -31.9662 12.0081 -37.856 0 0 0 
67 1 1 -25.1793 14.686 -40.0947 0 0 0 
69 3 1 -18.3812 17.4383 -41.363 0 0 0 
68 2 1 -21.8157 16.8885 -40.9465 0 0 0 
70 1 1 -24.3014 15.9081 -36.5646 0 0 0 
74 2 1 -26.4467 17.1121 -30.0224 0 0 0 
75 3 1 -29.6409 18.4976 -28.2472 0 0 0 
71 2 1 -20.8628 18.2183 -36.3081 0 0 0 
72 3 1 -18.4125 20.593 -36.7165 0 0 0 
73 1 1 -23.8292 16.9937 -32.9354 0 0 0 
76 1 1 -21.5507 18.5204 -30.2024 0 0 0 
78 3 1 -15.6243 21.9885 -32.9808 0 0 0 
77 2 1 -18.1403 20.2237 -31.2136 0 0 0 
81 3 1 -24.1839 15.9438 -21.3456 0 0 0 
83 2 1 -16.9982 25.544 -24.0544 0 0 0 
79 1 1 -20.6342 19.6685 -26.6811 0 0 0 
80 2 1 -22.254 18.2804 -23.3127 0 0 0 
82 1 1 -18.6956 21.9369 -24.0992 0 0 0 
85 1 1 -17.2957 22.0338 -20.6184 0 0 0 
86 2 1 -18.1536 19.6267 -18.0556 0 0 0 
84 3 1 -18.714 27.7619 -26.4439 0 0 0 
89 2 1 -15.3692 26.6728 -15.3435 0 0 0 
90 3 1 -13.2027 29.6344 -14.405 0 0 0 
87 3 1 -18.3327 16.7384 -16.086 0 0 0 
96 3 1 -12.482 14.3145 -7.94263 0 0 0 
88 1 1 -15.3474 23.0105 -17.206 0 0 0 
92 2 1 -10.3959 24.4825 -13.0356 0 0 0 
94 1 1 -11.6047 20.8417 -10.8996 0 0 0 
91 1 1 -13.3894 22.1352 -13.9778 0 0 0 
93 3 1 -8.04968 25.4628 -15.8051 0 0 0 
95 2 1 -10.8353 17.1127 -9.36216 0 0 0 
102 3 1 -7.72577 11.8233 -3.82414 0 0 0 
101 2 1 -6.81715 15.1829 -4.41422 0 0 0 
98 2 1 -10.3336 23.6292 -4.47657 0 0 0 
100 1 1 -6.97431 19.2874 -5.28466 0 0 0 
103 1 1 -4.01219 18.241 -2.94019 0 0 0 
97 1 1 -9.65981 21.0937 -7.49535 0 0 0 
106 1 1 -0.939076 18.3997 -0.753239 0 0 0 
105 3 1 -3.05932 10.9544 -0.375351 0 0 0 
104 2 1 -3.45324 14.5242 -1.38163 0 0 0 
114 3 1 10.9445 18.6518 3.52835 0 0 0 
99 3 1 -12.1499 26.1266 -2.93308 0 0 0 
123 3 1 8.81625 7.69303 16.9799 0 0 0 
129 3 1 13.2197 5.13541 22.0944 0 0 0 
110 2 1 -1.11878 15.9467 5.95134 0 0 0 
111 3 1 -2.57858 15.9866 9.45931 0 0 0 
117 3 1 2.30685 15.024 13.1601 0 0 0 
115 1 1 6.39973 15.4963 7.37196 0 0 0 
116 2 1 5.33405 14.3892 10.9128 0 0 0 
118 1 1 9.52196 14.0203 9.30761 0 0 0 
121 1 1 11.7707 12.3541 11.9249 0 0 0 
122 2 1 10.6469 10.6458 15.2193 0 0 0 
124 1 1 15.0572 11.0079 13.5904 0 0 0 
125 2 1 18.9747 12.0803 12.9838 0 0 0 
126 3 1 22.2691 12.7796 12.0544 0 0 0 
108 3 1 5.90032 20.5723 -1.64452 0 0 0 
109 1 1 0.753819 17.3051 2.57968 0 0 0 
107 2 1 2.53254 19.6184 -0.67625 0 0 0 
112 1 1 3.62646 16.7471 5.08594 0 0 0 
113 2 1 7.20052 18.3377 4.04748 0 0 0 
119 2 1 13.2313 13.9025 7.99894 0 0 0 
120 3 1 16.7641 14.4623 8.8602 0 0 0 
128 2 1 14.3985 6.55989 18.6735 0 0 0 
132 3 1 17.5071 1.101 20.2265 0 0 0 
131 2 1 18.4251 4.7223 20.8522 0 0 0 
138 3 1 24.8243 -0.497099 27.6324 0 0 0 
137 2 1 24.024 2.78968 25.9252 0 0 0 
136 1 1 25.1394 6.05605 23.8525 0 0 0 
127 1 1 16.7393 9.07891 16.4519 0 0 0 
130 1 1 19.1741 7.91176 19.1369 0 0 0 
133 1 1 22.2825 7.43851 21.5079 0 0 0 
134 2 1 25.5922 8.73695 20.4653 0 0 0 
135 3 1 28.9029 10.7193 20.4774 0 0 0 
142 1 1 28.665 2.92813 29.7358 0 0 0 
145 1 1 28.5321 0.376889 32.686 0 0 0 
143 2 1 32.7123 2.88334 30.8533 0 0 0 
139 1 1 27.6256 5.00893 26.6991 0 0 0 
144 3 1 35.7765 3.9674 32.8587 0 0 0 
146 2 1 31.0188 -2.686 33.7085 0 0 0 
140 2 1 31.5021 6.10659 27.1481 0 0 0 
141 3 1 34.7519 7.80117 27.9858 0 0 0 
160 1 1 16.2695 -7.54056 44.794 0 0 0 
158 2 1 20.9816 -9.84443 44.7852 0 0 0 
159 3 1 21.9637 -13.2252 44.8534 0 0 0 
157 1 1 19.5594 -6.81435 42.6124 0 0 0 
150 3 1 30.8457 -7.70446 35.9699 0 0 0 
161 2 1 12.9177 -5.24886 44.464 0 0 0 
162 3 1 9.41915 -5.69703 42.9517 0 0 0 
156 3 1 18.0128 0.881957 43.032 0 0 0 
154 1 1 22.3805 -4.85178 40.577 0 0 0 
155 2 1 19.4038 -1.99993 41.2163 0 0 0 
151 1 1 25.5084 -3.70846 38.354 0 0 0 
152 2 1 26.317 -6.72553 40.8578 0 0 0 
147 3 1 34.1952 -3.46536 34.8581 0 0 0 
149 2 1 29.4541 -4.56039 36.8461 0 0 0 
148 1 1 27.456 -1.71538 35.6342 0 0 0 
180 3 1 -4.49323 -18.7841 58.1482 0 0 0 
171 3 1 12.5365 -18.6543 53.9197 0 0 0 
172 1 1 5.94884 -14.056 54.1924 0 0 0 
170 2 1 10.0685 -16.0673 54.1058 0 0 0 
175 1 1 3.75946 -16.629 56.1153 0 0 0 
168 3 1 9.32448 -8.33024 56.4015 0 0 0 
163 1 1 13.7235 -9.51237 47.2887 0 0 0 
165 3 1 6.81288 -8.38034 47.0994 0 0 0 
164 2 1 10.3892 -9.15741 46.0553 0 0 0 
167 2 1 10.9642 -9.2222 53.3738 0 0 0 
169 1 1 8.94037 -12.6991 52.2277 0 0 0 
166 1 1 11.573 -10.7736 50.2186 0 0 0 
153 3 1 26.4427 -10.2098 40.4397 0 0 0 
185 2 1 1.16699 -27.5362 64.5008 0 0 0 
186 3 1 -0.349111 -30.4921 63.5313 0 0 0 
187 1 1 0.739251 -25.4017 68.1054 0 0 0 
184 1 1 1.68066 -23.4753 64.9816 0 0 0 
179 2 1 -1.26981 -19.8795 58.513 0 0 0 
181 1 1 2.35062 -20.9266 62.0468 0 0 0 
182 2 1 3.93394 -19.2541 65.3607 0 0 0 
183 3 1 5.12583 -18.3081 68.9196 0 0 0 
176 2 1 0.0940958 -17.4087 54.837 0 0 0 
177 3 1 -2.11478 -19.5734 52.8378 0 0 0 
178 1 1 2.57804 -18.9638 58.788 0 0 0 
174 3 1 -1.28789 -12.6179 52.7615 0 0 0 
173 2 1 2.41394 -12.1918 53.8779 0 0 0 
195 3 1 1.89114 -36.1988 76.5205 0 0 0 
194 2 1 0.0302651 -33.4978 74.5199 0 0 0 
196 1 1 -4.27097 -31.9565 75.5389 0 0 0 
193 1 1 -1.71536 -30.1716 73.2071 0 0 0 
190 1 1 0.422737 -28.179 70.7417 0 0 0 
191 2 1 3.69818 -30.234 72.1771 0 0 0 
192 3 1 6.3225 -32.6533 72.2832 0 0 0 
188 2 1 -1.72135 -23.5429 70.6486 0 0 0 
189 3 1 -2.19972 -21.7629 73.9426 0 0 0 
204 3 1 -8.70859 -33.2141 85.6543 0 0 0 
203 2 1 -8.58627 -36.523 83.621 0 0 0 
200 2 1 -4.87439 -38.8374 76.0734 0 0 0 
201 3 1 -5.53296 -41.3426 73.5265 0 0 0 
210 3 1 -19.6229 -45.5983 82.5452 0 0 0 
199 1 1 -5.83026 -35.1345 77.3671 0 0 0 
205 1 1 -10.7978 -39.4411 81.6139 0 0 0 
202 1 1 -8.26186 -36.8551 79.9961 0 0 0 
197 2 1 -6.70137 -29.9635 77.4358 0 0 0 
198 3 1 -9.00505 -30.8252 80.0144 0 0 0 
207 3 1 -9.74379 -41.0489 88.6548 0 0 0 
206 2 1 -10.8349 -39.7258 85.6162 0 0 0 
209 2 1 -15.794 -45.0425 82.7731 0 0 0 
208 1 1 -12.9482 -42.1638 83.2615 0 0 0 
ITEM: TIMESTEP
300000
ITEM: NUMBER OF ATOMS
210
ITEM: BOX BOUNDS pp pp pp
-185.458 185.458
-185.458 185.458
-185.458 185.458
ITEM: ATOMS id type mol x y z ix iy iz 
34 1 1 -5.2006 3.77229 -34.8387 0 0 0 
35 2 1 -4.66259 0.633747 -37.2333 0 0 0 
36 3 1 -5.19131 -1.77809 -40.1572 0 0 0 
39 3 1 2.20006 -1.12294 -39.7722 0 0 0 
38 2 1 0.0405214 -0.189564 -36.9142 0 0 0 
21 3 1 -20.5176 20.6289 -37.1655 0 0 0 
24 3 1 -19.695 10.2285 -37.5293 0 0 0 
23 2 1 -17.8852 13.4831 -36.7421 0 0 0 
26 2 1 -15.2191 7.95923 -37.2905 0 0 0 
28 1 1 -10.9321 8.4418 -34.9085 0 0 0 
25 1 1 -13.6662 11.2047 -35.397 0 0 0 
29 2 1 -11.1449 4.65118 -36.4007 0 0 0 
27 3 1 -17.5358 5.95102 -35.4417 0 0 0 
31 1 1 -7.72404 6.54084 -33.8656 0 0 0 
30 3 1 -12.6665 1.44205 -37.599 0 0 0 
125 2 1 3.12347 -8.18664 -30.6322 0 0 0 
126 3 1 1.61836 -10.3551 -32.8227 0 0 0 
124 1 1 4.54965 -8.24419 -26.8369 0 0 0 
45 3 1 8.93228 -5.59178 -34.7667 0 0 0 
123 3 1 8.17224 -10.553 -32.2427 0 0 0 
122 2 1 8.35067 -10.8046 -28.5055 0 0 0 
47 2 1 8.57874 -6.0099 -27.0896 0 0 0 
48 3 1 11.7866 -4.61702 -27.4643 0 0 0 
32 2 1 -5.03948 6.49161 -30.8001 0 0 0 
33 3 1 -2.85856 7.6005 -28.0619 0 0 0 
37 1 1 -1.88813 2.15489 -34.2109 0 0 0 
129 3 1 -2.12148 -3.6614 -31.8471 0 0 0 
128 2 1 -1.64582 -4.44738 -28.4897 0 0 0 
127 1 1 1.48112 -5.98649 -26.4707 0 0 0 
41 2 1 1.02914 0.845857 -28.6897 0 0 0 
42 3 1 2.12508 1.18786 -25.3418 0 0 0 
40 1 1 0.933209 0.331556 -32.2278 0 0 0 
44 2 1 6.79694 -4.01032 -32.5811 0 0 0 
46 1 1 5.47556 -3.442 -27.5996 0 0 0 
43 1 1 3.70531 -1.94275 -30.8244 0 0 0 
20 2 1 -17.2535 18.8836 -36.0682 0 0 0 
18 3 1 -19.9252 23.8388 -31.2696 0 0 0 
22 1 1 -14.6454 14.8966 -34.6515 0 0 0 
17 2 1 -17.3634 22.031 -32.8028 0 0 0 
19 1 1 -14.6086 18.3793 -32.9852 0 0 0 
16 1 1 -13.8862 21.5034 -30.914 0 0 0 
13 1 1 -11.5739 23.5492 -28.5242 0 0 0 
14 2 1 -9.20173 21.6056 -31.2175 0 0 0 
15 3 1 -6.47736 21.1286 -33.9322 0 0 0 
10 1 1 -10.8664 25.6874 -25.3569 0 0 0 
8 2 1 -7.07457 27.5297 -22.2818 0 0 0 
9 3 1 -4.29968 26.1325 -20.3633 0 0 0 
12 3 1 -4.82054 25.4016 -29.8658 0 0 0 
11 2 1 -7.44539 24.9488 -27.4674 0 0 0 
117 3 1 11.0673 -17.5032 -19.9739 0 0 0 
120 3 1 1.62487 -8.76574 -22.2027 0 0 0 
60 3 1 6.45944 -15.6011 -14.8981 0 0 0 
59 2 1 5.80776 -12.1817 -13.7199 0 0 0 
121 1 1 7.50567 -9.65283 -24.8553 0 0 0 
119 2 1 5.34734 -8.94672 -22.0399 0 0 0 
116 2 1 10.9551 -14.2171 -18.9864 0 0 0 
118 1 1 9.01786 -10.2845 -21.3145 0 0 0 
51 3 1 11.7246 -6.3289 -22.3734 0 0 0 
50 2 1 8.49095 -5.01527 -22.2743 0 0 0 
115 1 1 9.77978 -10.6015 -17.6081 0 0 0 
113 2 1 9.51229 -6.01041 -16.1399 0 0 0 
132 3 1 -4.27494 1.36436 -26.355 0 0 0 
134 2 1 0.128493 -6.36736 -18.0305 0 0 0 
130 1 1 -0.211102 -3.77345 -23.8288 0 0 0 
131 2 1 -3.16764 -0.946121 -23.9292 0 0 0 
133 1 1 -0.998633 -3.02428 -20.106 0 0 0 
136 1 1 -1.41196 -2.82827 -16.3003 0 0 0 
53 2 1 3.06209 -1.43668 -17.2634 0 0 0 
54 3 1 3.47333 1.21994 -14.7944 0 0 0 
55 1 1 4.85754 -5.55094 -16.3432 0 0 0 
49 1 1 5.47819 -3.76393 -23.7884 0 0 0 
52 1 1 4.81065 -3.96125 -19.9205 0 0 0 
114 3 1 10.418 -2.98045 -17.4523 0 0 0 
5 2 1 -15.1398 26.4661 -19.6777 0 0 0 
6 3 1 -17.7332 25.0821 -21.5162 0 0 0 
4 1 1 -12.8045 29.6542 -19.2446 0 0 0 
1 1 1 -13.0781 32.4991 -16.6007 0 0 0 
3 3 1 -6.15266 31.7221 -19.0929 0 0 0 
7 1 1 -11.0214 27.733 -22.0868 0 0 0 
2 2 1 -9.74549 33.0357 -18.9059 0 0 0 
66 3 1 6.98814 -17.5898 -3.10549 0 0 0 
135 3 1 0.454203 -9.48932 -15.8426 0 0 0 
111 3 1 8.55617 -15.3878 -10.5622 0 0 0 
64 1 1 5.77458 -11.1201 -6.46305 0 0 0 
61 1 1 5.74299 -9.53967 -9.83192 0 0 0 
58 1 1 5.22092 -8.22051 -13.5162 0 0 0 
143 2 1 0.704653 -10.317 -9.41904 0 0 0 
144 3 1 2.61187 -13.5038 -10.4325 0 0 0 
65 2 1 7.29799 -14.2715 -4.56841 0 0 0 
145 1 1 -0.793882 -7.48581 -6.08166 0 0 0 
142 1 1 -0.620093 -6.48711 -9.7514 0 0 0 
62 2 1 4.04519 -6.92163 -7.36314 0 0 0 
147 3 1 2.10531 -14.3494 -4.8125 0 0 0 
110 2 1 9.85974 -12.0384 -10.4224 0 0 0 
109 1 1 9.61114 -8.12354 -10.1529 0 0 0 
112 1 1 9.97803 -9.21464 -13.9327 0 0 0 
106 1 1 8.86549 -6.26691 -7.0038 0 0 0 
107 2 1 7.88697 -4.28968 -10.4774 0 0 0 
139 1 1 -1.23153 -4.01974 -12.6415 0 0 0 
137 2 1 -2.52664 0.16085 -14.8418 0 0 0 
140 2 1 -2.74831 -2.02354 -9.3927 0 0 0 
141 3 1 -1.65992 -1.53716 -5.78408 0 0 0 
138 3 1 -2.60243 2.92216 -12.0744 0 0 0 
56 2 1 3.2313 -3.85879 -13.1137 0 0 0 
57 3 1 2.57567 -1.72986 -10.5061 0 0 0 