ITEM: TIMESTEP
0
ITEM: NUMBER OF ATOMS
222
ITEM: BOX BOUNDS pp pp pp
-188.925 188.925
-188.925 188.925
-188.925 188.925
ITEM: ATOMS id type mol x y z ix iy iz 
1 1 1 -21.4255 -26.3607 -128.939 0 0 0 
3 3 1 -28.2611 -27.1251 -125.825 0 0 0 
9 3 1 -27.09 -25.6548 -118.788 0 0 0 
2 2 1 -24.815 -26.4192 -127.067 0 0 0 
4 1 1 -20.84 -25.6256 -125.42 0 0 0 
5 2 1 -17.3125 -26.5647 -126.318 0 0 0 
6 3 1 -13.7253 -27.5356 -125.493 0 0 0 
12 3 1 -12.5542 -26.0653 -118.456 0 0 0 
7 1 1 -20.2544 -24.8904 -121.902 0 0 0 
8 2 1 -23.6439 -24.9489 -120.031 0 0 0 
10 1 1 -19.6689 -24.1552 -118.384 0 0 0 
11 2 1 -16.1414 -25.0944 -119.281 0 0 0 
15 3 1 -25.9189 -24.1845 -111.752 0 0 0 
13 1 1 -19.0834 -23.4201 -114.865 0 0 0 
14 2 1 -22.4729 -23.4785 -112.994 0 0 0 
16 1 1 -18.4978 -22.6849 -111.347 0 0 0 
19 1 1 -17.9123 -21.9497 -107.828 0 0 0 
17 2 1 -14.9704 -23.6241 -112.245 0 0 0 
18 3 1 -11.3831 -24.595 -111.419 0 0 0 
20 2 1 -21.3018 -22.0082 -105.957 0 0 0 
21 3 1 -24.7479 -22.7141 -104.715 0 0 0 
22 1 1 -17.3268 -21.2146 -104.31 0 0 0 
25 1 1 -16.7412 -20.4794 -100.792 0 0 0 
26 2 1 -20.1307 -20.5379 -98.9203 0 0 0 
27 3 1 -23.5768 -21.2438 -97.6781 0 0 0 
28 1 1 -16.1557 -19.7443 -97.2732 0 0 0 
23 2 1 -13.7993 -22.1538 -105.208 0 0 0 
24 3 1 -10.2121 -23.1246 -104.382 0 0 0 
29 2 1 -12.6282 -20.6834 -98.1709 0 0 0 
30 3 1 -9.04103 -21.6543 -97.3458 0 0 0 
31 1 1 -15.5702 -19.0091 -93.7548 0 0 0 
32 2 1 -18.9597 -19.0676 -91.8835 0 0 0 
33 3 1 -22.4058 -19.7735 -90.6412 0 0 0 
34 1 1 -14.9846 -18.2739 -90.2364 0 0 0 
35 2 1 -11.4572 -19.2131 -91.1341 0 0 0 
36 3 1 -7.86996 -20.184 -90.309 0 0 0 
38 2 1 -17.7886 -17.5972 -84.8467 0 0 0 
39 3 1 -21.2347 -18.3032 -83.6044 0 0 0 
44 2 1 -16.6176 -16.1269 -77.8099 0 0 0 
37 1 1 -14.3991 -17.5388 -86.718 0 0 0 
40 1 1 -13.8136 -16.8036 -83.1996 0 0 0 
41 2 1 -10.2861 -17.7428 -84.0973 0 0 0 
42 3 1 -6.6989 -18.7136 -83.2722 0 0 0 
43 1 1 -13.228 -16.0684 -79.6812 0 0 0 
47 2 1 -9.11506 -16.2724 -77.0605 0 0 0 
45 3 1 -20.0636 -16.8328 -76.5677 0 0 0 
51 3 1 -18.8926 -15.3625 -69.5309 0 0 0 
46 1 1 -12.6425 -15.3333 -76.1628 0 0 0 
48 3 1 -5.52784 -17.2433 -76.2353 0 0 0 
54 3 1 -4.35678 -15.773 -69.1985 0 0 0 
50 2 1 -15.4465 -14.6566 -70.7731 0 0 0 
49 1 1 -12.057 -14.5981 -72.6444 0 0 0 
52 1 1 -11.4715 -13.8629 -69.126 0 0 0 
53 2 1 -7.944 -14.8021 -70.0237 0 0 0 
57 3 1 -17.7215 -13.8922 -62.4941 0 0 0 
55 1 1 -10.8859 -13.1278 -65.6076 0 0 0 
56 2 1 -14.2754 -13.1863 -63.7363 0 0 0 
58 1 1 -10.3004 -12.3926 -62.0892 0 0 0 
59 2 1 -6.77294 -13.3318 -62.9869 0 0 0 
61 1 1 -9.71487 -11.6575 -58.5708 0 0 0 
62 2 1 -13.1044 -11.7159 -56.6995 0 0 0 
60 3 1 -3.18572 -14.3027 -62.1617 0 0 0 
63 3 1 -16.5505 -12.4218 -55.4573 0 0 0 
69 3 1 -15.3794 -10.9515 -48.4205 0 0 0 
64 1 1 -9.12934 -10.9223 -55.0524 0 0 0 
65 2 1 -5.60187 -11.8615 -55.9501 0 0 0 
67 1 1 -8.54381 -10.1871 -51.534 0 0 0 
68 2 1 -11.9333 -10.2456 -49.6627 0 0 0 
70 1 1 -7.95828 -9.45196 -48.0156 0 0 0 
66 3 1 -2.01466 -12.8323 -55.1249 0 0 0 
71 2 1 -4.43081 -10.3911 -48.9133 0 0 0 
72 3 1 -0.843596 -11.362 -48.0881 0 0 0 
73 1 1 -7.37275 -8.7168 -44.4972 0 0 0 
74 2 1 -10.7623 -8.77528 -42.6259 0 0 0 
75 3 1 -14.2083 -9.4812 -41.3836 0 0 0 
76 1 1 -6.78722 -7.98163 -40.9788 0 0 0 
79 1 1 -6.20169 -7.24647 -37.4604 0 0 0 
77 2 1 -3.25975 -8.92082 -41.8765 0 0 0 
78 3 1 0.327464 -9.89168 -41.0513 0 0 0 
80 2 1 -9.59121 -7.30495 -35.5891 0 0 0 
81 3 1 -13.0373 -8.01088 -34.3468 0 0 0 
82 1 1 -5.61616 -6.51131 -33.942 0 0 0 
86 2 1 -8.42014 -5.83463 -28.5523 0 0 0 
87 3 1 -11.8662 -6.54055 -27.31 0 0 0 
83 2 1 -2.08869 -7.45049 -34.8397 0 0 0 
84 3 1 1.49853 -8.42135 -34.0145 0 0 0 
85 1 1 -5.03063 -5.77614 -30.4236 0 0 0 
89 2 1 -0.91763 -5.98017 -27.8029 0 0 0 
90 3 1 2.66959 -6.95103 -26.9778 0 0 0 
88 1 1 -4.4451 -5.04098 -26.9052 0 0 0 
96 3 1 3.84065 -5.4807 -19.9409 0 0 0 
92 2 1 -7.24908 -4.3643 -21.5155 0 0 0 
93 3 1 -10.6951 -5.07022 -20.2732 0 0 0 
91 1 1 -3.85956 -4.30582 -23.3868 0 0 0 
94 1 1 -3.27403 -3.57065 -19.8684 0 0 0 
95 2 1 0.253431 -4.50984 -20.7661 0 0 0 
97 1 1 -2.6885 -2.83549 -16.35 0 0 0 
98 2 1 -6.07802 -2.89397 -14.4787 0 0 0 
99 3 1 -9.52409 -3.5999 -13.2364 0 0 0 
105 3 1 -8.35303 -2.12957 -6.19964 0 0 0 
100 1 1 -2.10297 -2.10033 -12.8316 0 0 0 
101 2 1 1.42449 -3.03951 -13.7293 0 0 0 
102 3 1 5.01171 -4.01037 -12.9041 0 0 0 
103 1 1 -1.51744 -1.36516 -9.31319 0 0 0 
104 2 1 -4.90696 -1.42365 -7.44193 0 0 0 
106 1 1 -0.931911 -0.629998 -5.79479 0 0 0 
107 2 1 2.59555 -1.56918 -6.69249 0 0 0 
108 3 1 6.18277 -2.54004 -5.86735 0 0 0 
111 3 1 -7.18197 -0.659241 0.837158 0 0 0 
109 1 1 -0.34638 0.105164 -2.27638 0 0 0 
110 2 1 -3.7359 0.046681 -0.405124 0 0 0 
112 1 1 0.23915 0.840328 1.24202 0 0 0 
113 2 1 3.76661 -0.098857 0.344313 0 0 0 
115 1 1 0.82468 1.57549 4.76042 0 0 0 
114 3 1 7.35383 -1.06972 1.16945 0 0 0 
117 3 1 -6.01091 0.811085 7.87396 0 0 0 
116 2 1 -2.56484 1.51701 6.63168 0 0 0 
118 1 1 1.41021 2.31066 8.27882 0 0 0 
119 2 1 4.93768 1.37147 7.38111 0 0 0 
121 1 1 1.99574 3.04582 11.7972 0 0 0 
122 2 1 -1.39377 2.98733 13.6685 0 0 0 
123 3 1 -4.83985 2.28141 14.9108 0 0 0 
124 1 1 2.58127 3.78098 15.3156 0 0 0 
120 3 1 8.52489 0.400609 8.20626 0 0 0 
125 2 1 6.10874 2.8418 14.4179 0 0 0 
126 3 1 9.69595 1.87094 15.2431 0 0 0 
127 1 1 3.1668 4.51615 18.834 0 0 0 
128 2 1 -0.222713 4.45766 20.7053 0 0 0 
129 3 1 -3.66878 3.75174 21.9476 0 0 0 
131 2 1 7.2798 4.31212 21.4547 0 0 0 
132 3 1 10.867 3.34126 22.2798 0 0 0 
130 1 1 3.75233 5.25131 22.3524 0 0 0 
138 3 1 12.0381 4.81159 29.3167 0 0 0 
133 1 1 4.33786 5.98647 25.8708 0 0 0 
134 2 1 0.948347 5.92799 27.7421 0 0 0 
135 3 1 -2.49772 5.22207 28.9844 0 0 0 
136 1 1 4.9234 6.72164 29.3892 0 0 0 
140 2 1 2.11941 7.39832 34.7789 0 0 0 
137 2 1 8.45086 5.78245 28.4915 0 0 0 
139 1 1 5.50893 7.4568 32.9076 0 0 0 
143 2 1 9.62192 7.25278 35.5283 0 0 0 
141 3 1 -1.32666 6.69239 36.0212 0 0 0 
146 2 1 3.29047 8.86864 41.8157 0 0 0 
147 3 1 -0.155599 8.16272 43.058 0 0 0 
142 1 1 6.09446 8.19196 36.426 0 0 0 
144 3 1 13.2091 6.28192 36.3535 0 0 0 
145 1 1 6.67999 8.92713 39.9444 0 0 0 
148 1 1 7.26552 9.66229 43.4628 0 0 0 
149 2 1 10.793 8.72311 42.5651 0 0 0 
150 3 1 14.3802 7.75224 43.3903 0 0 0 
152 2 1 4.46153 10.339 48.8525 0 0 0 
153 3 1 1.01546 9.63305 50.0948 0 0 0 
151 1 1 7.85105 10.3974 46.9812 0 0 0 
154 1 1 8.43658 11.1326 50.4996 0 0 0 
155 2 1 11.964 10.1934 49.6019 0 0 0 
157 1 1 9.02211 11.8678 54.018 0 0 0 
158 2 1 5.63259 11.8093 55.8893 0 0 0 
156 3 1 15.5513 9.22257 50.4271 0 0 0 
159 3 1 2.18652 11.1034 57.1316 0 0 0 
165 3 1 3.35758 12.5737 64.1684 0 0 0 
160 1 1 9.60764 12.6029 57.5364 0 0 0 
161 2 1 13.1351 11.6638 56.6387 0 0 0 
163 1 1 10.1932 13.3381 61.0548 0 0 0 
164 2 1 6.80365 13.2796 62.9261 0 0 0 
166 1 1 10.7787 14.0733 64.5732 0 0 0 
167 2 1 14.3062 13.1341 63.6755 0 0 0 
162 3 1 16.7223 10.6929 57.4639 0 0 0 
168 3 1 17.8934 12.1632 64.5007 0 0 0 
171 3 1 4.52865 14.044 71.2052 0 0 0 
169 1 1 11.3642 14.8084 68.0916 0 0 0 
170 2 1 7.97472 14.75 69.9629 0 0 0 
173 2 1 15.4772 14.6044 70.7123 0 0 0 
174 3 1 19.0644 13.6335 71.5375 0 0 0 
172 1 1 11.9498 15.5436 71.61 0 0 0 
175 1 1 12.5353 16.2788 75.1284 0 0 0 
180 3 1 20.2355 15.1039 78.5743 0 0 0 
176 2 1 9.14578 16.2203 76.9997 0 0 0 
177 3 1 5.69971 15.5144 78.242 0 0 0 
178 1 1 13.1208 17.0139 78.6468 0 0 0 
181 1 1 13.7064 17.7491 82.1652 0 0 0 
182 2 1 10.3168 17.6906 84.0365 0 0 0 
183 3 1 6.87077 16.9847 85.2788 0 0 0 
184 1 1 14.2919 18.4842 85.6836 0 0 0 
179 2 1 16.6483 16.0747 77.7491 0 0 0 
185 2 1 17.8194 17.5451 84.7859 0 0 0 
186 3 1 21.4066 16.5742 85.6111 0 0 0 
187 1 1 14.8774 19.2194 89.202 0 0 0 
188 2 1 11.4879 19.1609 91.0733 0 0 0 
189 3 1 8.04183 18.455 92.3156 0 0 0 
190 1 1 15.4629 19.9546 92.7204 0 0 0 
191 2 1 18.9904 19.0154 91.8227 0 0 0 
192 3 1 22.5776 18.0445 92.6479 0 0 0 
193 1 1 16.0485 20.6897 96.2388 0 0 0 
194 2 1 12.659 20.6313 98.1101 0 0 0 
195 3 1 9.21289 19.9253 99.3524 0 0 0 
200 2 1 13.83 22.1016 105.147 0 0 0 
201 3 1 10.384 21.3957 106.389 0 0 0 
196 1 1 16.634 21.4249 99.7572 0 0 0 
197 2 1 20.1615 20.4857 98.8595 0 0 0 
198 3 1 23.7487 19.5149 99.6847 0 0 0 
199 1 1 17.2195 22.1601 103.276 0 0 0 
202 1 1 17.8051 22.8952 106.794 0 0 0 
203 2 1 21.3325 21.956 105.896 0 0 0 
204 3 1 24.9198 20.9852 106.721 0 0 0 
206 2 1 15.0011 23.5719 112.184 0 0 0 
207 3 1 11.555 22.866 113.426 0 0 0 
205 1 1 18.3906 23.6304 110.312 0 0 0 
208 1 1 18.9761 24.3656 113.831 0 0 0 
209 2 1 22.5036 23.4264 112.933 0 0 0 
211 1 1 19.5617 25.1007 117.349 0 0 0 
210 3 1 26.0908 22.4555 113.758 0 0 0 
213 3 1 12.7261 24.3363 120.463 0 0 0 
212 2 1 16.1721 25.0422 119.22 0 0 0 
215 2 1 23.6747 24.8967 119.97 0 0 0 
216 3 1 27.2619 23.9258 120.795 0 0 0 
219 3 1 13.8971 25.8066 127.499 0 0 0 
214 1 1 20.1472 25.8359 120.868 0 0 0 
217 1 1 20.7327 26.571 124.386 0 0 0 
218 2 1 17.3432 26.5126 126.257 0 0 0 
221 2 1 24.8457 26.367 127.007 0 0 0 
222 3 1 28.4329 25.3962 127.832 0 0 0 
220 1 1 21.3182 27.3062 127.904 0 0 0 
ITEM: TIMESTEP
100000
ITEM: NUMBER OF ATOMS
222
ITEM: BOX BOUNDS pp pp pp
-188.925 188.925
-188.925 188.925
-188.925 188.925
ITEM: ATOMS id type mol x y z ix iy iz 
6 3 1 -32.4288 -46.2921 -87.1917 0 0 0 
12 3 1 -26.5771 -38.485 -92.9088 0 0 0 
3 3 1 -43.749 -39.3678 -91.72 0 0 0 
1 1 1 -40.5529 -46.0259 -91.2397 0 0 0 
2 2 1 -42.5813 -42.5712 -90.5997 0 0 0 
4 1 1 -37.6612 -43.4796 -91.3275 0 0 0 
7 1 1 -35.4721 -40.3555 -91.9067 0 0 0 
8 2 1 -37.8201 -37.2572 -92.2755 0 0 0 
5 2 1 -34.0334 -44.9698 -90.3717 0 0 0 
10 1 1 -33.4928 -36.9845 -91.7009 0 0 0 
11 2 1 -29.8768 -37.5076 -93.6015 0 0 0 
13 1 1 -31.8058 -33.6065 -91.1092 0 0 0 
16 1 1 -30.7367 -29.928 -91.7837 0 0 0 
17 2 1 -29.1115 -28.6517 -95.2961 0 0 0 
18 3 1 -26.7269 -27.9841 -97.9442 0 0 0 
19 1 1 -29.9859 -26.1993 -91.2507 0 0 0 
21 3 1 -31.362 -20.8279 -96.4785 0 0 0 
20 2 1 -29.5643 -23.3767 -94.3055 0 0 0 
9 3 1 -40.0301 -35.5656 -90.09 0 0 0 
14 2 1 -32.4275 -31.8505 -87.4919 0 0 0 
15 3 1 -34.4368 -30.9619 -84.3211 0 0 0 
27 3 1 -28.0192 -23.3419 -79.3697 0 0 0 
22 1 1 -28.9433 -22.8794 -89.4914 0 0 0 
23 2 1 -28.2356 -19.5037 -91.5736 0 0 0 
26 2 1 -27.6124 -22.1521 -82.6605 0 0 0 
25 1 1 -28.5377 -20.6512 -86.4034 0 0 0 
28 1 1 -28.6402 -17.8913 -83.6261 0 0 0 
24 3 1 -27.2897 -16.9139 -94.3961 0 0 0 
29 2 1 -28.0023 -13.8741 -84.0228 0 0 0 
31 1 1 -28.9479 -16.8763 -79.9022 0 0 0 
34 1 1 -28.0143 -14.1071 -77.5019 0 0 0 
35 2 1 -26.0455 -11.4698 -79.1718 0 0 0 
30 3 1 -28.6074 -10.4531 -84.5937 0 0 0 
36 3 1 -23.0989 -10.2543 -80.6579 0 0 0 
33 3 1 -29.983 -18.219 -73.3195 0 0 0 
32 2 1 -30.7977 -18.136 -76.726 0 0 0 
37 1 1 -27.5464 -11.6545 -74.416 0 0 0 
38 2 1 -29.1168 -12.3874 -71.3767 0 0 0 
39 3 1 -30.6353 -11.4942 -68.0103 0 0 0 
40 1 1 -26.2396 -8.79629 -72.0548 0 0 0 
41 2 1 -23.7631 -5.85819 -73.2585 0 0 0 
43 1 1 -26.1066 -6.69432 -68.8656 0 0 0 
42 3 1 -22.4254 -3.26444 -75.2843 0 0 0 
47 2 1 -23.8273 0.137431 -67.8804 0 0 0 
48 3 1 -21.7651 2.91362 -69.3285 0 0 0 
44 2 1 -26.9089 -8.23843 -65.5432 0 0 0 
45 3 1 -26.0092 -11.1017 -63.0768 0 0 0 
46 1 1 -25.6847 -3.44868 -66.9738 0 0 0 
49 1 1 -26.0718 -1.36879 -63.5931 0 0 0 
50 2 1 -23.8662 -2.13111 -60.9403 0 0 0 
52 1 1 -27.2258 1.21817 -60.8529 0 0 0 
53 2 1 -29.9418 3.71448 -61.1424 0 0 0 
51 3 1 -20.931 -1.94619 -58.659 0 0 0 
54 3 1 -32.7266 1.49247 -60.8359 0 0 0 
60 3 1 -35.1813 5.58455 -51.823 0 0 0 
55 1 1 -26.5974 2.62323 -57.2121 0 0 0 
58 1 1 -27.7592 3.83317 -53.6347 0 0 0 
59 2 1 -31.4618 5.28065 -52.6332 0 0 0 
61 1 1 -27.182 4.31983 -49.8247 0 0 0 
56 2 1 -23.4964 3.5286 -55.6474 0 0 0 
62 2 1 -24.194 2.53934 -48.6502 0 0 0 
63 3 1 -21.1947 1.74878 -46.5039 0 0 0 
57 3 1 -21.6889 5.27457 -52.8235 0 0 0 
65 2 1 -30.1767 8.46892 -44.7007 0 0 0 
64 1 1 -27.5635 5.68867 -46.2195 0 0 0 
67 1 1 -26.9252 5.63613 -42.4905 0 0 0 
70 1 1 -25.555 4.21723 -39.0151 0 0 0 
71 2 1 -23.1147 1.09686 -39.8785 0 0 0 
66 3 1 -32.807 10.6778 -44.7528 0 0 0 
69 3 1 -30.0523 8.33357 -36.2496 0 0 0 
68 2 1 -28.5992 8.01443 -39.948 0 0 0 
72 3 1 -19.7993 -0.24009 -39.939 0 0 0 
73 1 1 -24.5071 3.36028 -35.3918 0 0 0 
76 1 1 -22.5512 2.34544 -32.1162 0 0 0 
79 1 1 -19.9195 1.31262 -29.7901 0 0 0 
77 2 1 -23.4782 2.91313 -28.1303 0 0 0 
86 2 1 -9.52154 2.84496 -26.3418 0 0 0 
75 3 1 -29.7507 3.73938 -30.3183 0 0 0 
74 2 1 -26.6111 4.29345 -32.3993 0 0 0 
87 3 1 -6.39082 4.60727 -26.3854 0 0 0 
78 3 1 -24.8673 4.54436 -24.9146 0 0 0 
80 2 1 -19.3932 -1.96956 -27.4287 0 0 0 
81 3 1 -20.8294 -2.51846 -24.3785 0 0 0 
82 1 1 -16.8592 2.1934 -27.7857 0 0 0 
85 1 1 -13.627 2.51342 -25.7716 0 0 0 
83 2 1 -18.0919 3.78361 -24.6816 0 0 0 
84 3 1 -19.6899 6.46067 -23.1279 0 0 0 
89 2 1 -14.3255 5.26533 -19.4689 0 0 0 
88 1 1 -12.1702 3.11172 -22.2333 0 0 0 
90 3 1 -17.5917 6.23915 -17.9076 0 0 0 
95 2 1 -12.6396 3.29513 -12.5044 0 0 0 
92 2 1 -7.23026 0.131983 -18.0957 0 0 0 
91 1 1 -10.4753 2.65164 -18.6904 0 0 0 
93 3 1 -4.30261 -1.05201 -16.6357 0 0 0 
94 1 1 -9.56577 2.45977 -14.9643 0 0 0 
98 2 1 -4.4768 1.48392 -11.0228 0 0 0 
99 3 1 -1.0437 1.68659 -11.6818 0 0 0 
96 3 1 -16.4571 3.37824 -12.1141 0 0 0 
97 1 1 -8.42637 2.24469 -11.3126 0 0 0 
100 1 1 -8.13668 2.22391 -7.35728 0 0 0 
103 1 1 -6.67118 0.763676 -4.13733 0 0 0 
101 2 1 -9.56665 4.50288 -4.24407 0 0 0 
102 3 1 -11.8384 6.03973 -1.92617 0 0 0 
105 3 1 -5.75116 -6.2591 -2.9282 0 0 0 
104 2 1 -5.32657 -2.86162 -3.36995 0 0 0 
110 2 1 -0.61537 -2.13975 3.6164 0 0 0 
107 2 1 -5.46592 4.33177 1.31547 0 0 0 
106 1 1 -5.54762 0.617705 -0.407315 0 0 0 
109 1 1 -3.83161 -0.0393235 2.80765 0 0 0 
111 3 1 2.32547 -2.93616 6.14516 0 0 0 
108 3 1 -6.12639 7.12542 3.20912 0 0 0 
113 2 1 -5.42147 3.05479 8.16753 0 0 0 
116 2 1 -1.78489 -4.0308 11.4547 0 0 0 
117 3 1 -2.23899 -6.54484 13.9348 0 0 0 
118 1 1 -1.56673 0.283889 14.0898 0 0 0 
112 1 1 -3.13754 0.182373 6.63065 0 0 0 
115 1 1 -2.1628 -0.140445 10.348 0 0 0 
114 3 1 -8.1734 2.58998 5.5285 0 0 0 
120 3 1 1.71444 6.83758 15.635 0 0 0 
129 3 1 0.205552 -6.75591 28.4074 0 0 0 
123 3 1 -0.841626 -7.30709 20.1131 0 0 0 
119 2 1 0.973709 3.05638 15.2807 0 0 0 
122 2 1 -1.1686 -3.64841 19.6 0 0 0 
128 2 1 0.862463 -3.97133 26.297 0 0 0 
125 2 1 -0.261379 4.17146 23.1467 0 0 0 
121 1 1 -1.35602 -0.377737 17.9656 0 0 0 
124 1 1 -0.942006 0.34995 21.7336 0 0 0 
127 1 1 -0.0289137 -0.064842 25.4052 0 0 0 
126 3 1 1.42257 6.24168 25.4268 0 0 0 
134 2 1 1.46855 -4.85946 33.4209 0 0 0 
135 3 1 -0.620068 -5.85434 36.1569 0 0 0 
133 1 1 2.0658 -0.955885 32.4423 0 0 0 
136 1 1 4.04436 -1.12657 35.8311 0 0 0 
132 3 1 1.61431 3.36492 35.3279 0 0 0 
130 1 1 0.603908 0.398345 29.101 0 0 0 
131 2 1 -0.153058 3.15506 31.8971 0 0 0 
141 3 1 1.06803 -8.06033 41.2032 0 0 0 
140 2 1 2.42057 -4.78879 41.4254 0 0 0 
147 3 1 1.18674 -9.95707 46.1188 0 0 0 
138 3 1 6.57217 4.65351 38.8365 0 0 0 
139 1 1 4.99123 -2.39428 39.3757 0 0 0 
142 1 1 6.59153 -3.13602 42.9251 0 0 0 
137 2 1 6.98596 1.56741 37.0002 0 0 0 
143 2 1 9.42983 -2.12381 45.4093 0 0 0 
145 1 1 5.99821 -4.73334 46.3432 0 0 0 
146 2 1 3.47327 -6.99447 46.8964 0 0 0 
149 2 1 5.47103 -8.75727 51.4609 0 0 0 
148 1 1 6.3355 -5.20031 50.0883 0 0 0 
150 3 1 2.92099 -10.4715 53.2402 0 0 0 
144 3 1 10.7158 0.15992 47.8198 0 0 0 
151 1 1 7.29399 -4.97882 53.8082 0 0 0 
152 2 1 10.7138 -3.37456 55.5045 0 0 0 
153 3 1 13.2 -0.759697 56.606 0 0 0 
207 3 1 60.2214 20.7366 61.3886 0 0 0 
213 3 1 65.6847 24.679 62.0499 0 0 0 
156 3 1 4.47253 -11.4946 60.8563 0 0 0 
155 2 1 5.84335 -8.08522 59.8583 0 0 0 
154 1 1 7.85867 -5.59909 57.5154 0 0 0 
157 1 1 9.43406 -4.68851 60.9627 0 0 0 
160 1 1 10.7264 -4.51328 64.4157 0 0 0 
161 2 1 10.1946 -6.60213 68.0533 0 0 0 
158 2 1 12.0634 -1.61768 61.4172 0 0 0 
163 1 1 13.5186 -2.98415 66.6538 0 0 0 
159 3 1 14.1752 1.54854 60.4901 0 0 0 
180 3 1 29.6203 8.88446 63.2545 0 0 0 
179 2 1 26.9329 11.5406 63.6471 0 0 0 
187 1 1 31.9245 20.1651 62.4899 0 0 0 
190 1 1 35.4634 21.5217 61.4833 0 0 0 
191 2 1 36.1433 25.0791 59.4461 0 0 0 
192 3 1 36.5452 27.1259 56.2137 0 0 0 
194 2 1 41.0239 25.3314 60.5766 0 0 0 
200 2 1 49.4382 23.3395 61.0548 0 0 0 
199 1 1 46.7603 21.5994 63.6225 0 0 0 
197 2 1 45.685 19.0534 60.5223 0 0 0 
193 1 1 39.3435 21.9474 61.4039 0 0 0 
196 1 1 43.1558 21.4585 62.2198 0 0 0 
202 1 1 50.2197 21.1688 65.2734 0 0 0 
203 2 1 50.981 19.4231 68.477 0 0 0 
205 1 1 54.118 21.6035 65.92 0 0 0 
206 2 1 57.0021 20.6761 63.5501 0 0 0 
198 3 1 47.0254 16.0104 58.6367 0 0 0 
209 2 1 58.2255 23.3115 71.3454 0 0 0 
210 3 1 60.0654 26.0871 72.6892 0 0 0 
208 1 1 57.5283 22.8638 67.369 0 0 0 
211 1 1 61.3156 23.7809 67.6471 0 0 0 
195 3 1 41.0254 28.9166 61.9432 0 0 0 
201 3 1 51.7578 23.9775 58.4798 0 0 0 
204 3 1 49.8244 17.7187 71.3412 0 0 0 
214 1 1 64.3694 24.9317 69.5021 0 0 0 
217 1 1 66.5321 25.6599 72.7049 0 0 0 
212 2 1 63.882 23.7153 65.1874 0 0 0 
218 2 1 69.6757 27.8898 72.1757 0 0 0 
216 3 1 70.8471 26.7403 66.1106 0 0 0 
215 2 1 67.8064 26.5172 67.7505 0 0 0 
162 3 1 8.56999 -8.28817 71.1239 0 0 0 
165 3 1 16.6922 -5.39089 72.5227 0 0 0 
164 2 1 16.231 -4.98987 69.146 0 0 0 
167 2 1 17.5747 0.93599 71.2374 0 0 0 
166 1 1 15.6305 0.0435221 67.7705 0 0 0 
168 3 1 20.8716 0.73187 73.133 0 0 0 
169 1 1 17.0554 3.63614 67.6849 0 0 0 
174 3 1 15.352 13.9498 70.1515 0 0 0 
171 3 1 16.9548 5.468 60.1049 0 0 0 
170 2 1 17.4229 5.13956 63.8864 0 0 0 
172 1 1 18.3357 7.39356 67.4358 0 0 0 
173 2 1 17.2314 10.7623 69.3758 0 0 0 
175 1 1 20.8126 10.3321 66.5067 0 0 0 
178 1 1 23.554 12.8459 65.4865 0 0 0 
181 1 1 25.9616 15.9546 64.8116 0 0 0 
176 2 1 18.8465 13.9728 66.4382 0 0 0 
177 3 1 16.4624 15.185 63.7929 0 0 0 
185 2 1 32.9345 16.1269 65.2339 0 0 0 
184 1 1 29.3117 17.7593 64.1158 0 0 0 
186 3 1 36.42 16.5734 63.6824 0 0 0 
182 2 1 24.7169 19.168 64.2284 0 0 0 
183 3 1 22.7672 21.8368 65.0754 0 0 0 
189 3 1 30.2403 27.6599 61.3116 0 0 0 
188 2 1 30.8177 23.9332 61.1109 0 0 0 
222 3 1 63.5355 22.3859 80.1713 0 0 0 
221 2 1 66.6898 24.2665 78.8739 0 0 0 
220 1 1 68.1825 26.1245 76.2225 0 0 0 
219 3 1 71.7217 30.5878 70.9449 0 0 0 
ITEM: TIMESTEP
200000
ITEM: NUMBER OF ATOMS
222
ITEM: BOX BOUNDS pp pp pp
-188.925 188.925
-188.925 188.925
-188.925 188.925
ITEM: ATOMS id type mol x y z ix iy iz 
26 2 1 -23.7307 14.6686 -23.7708 0 0 0 
21 3 1 -18.8265 11.1971 -25.2288 0 0 0 
18 3 1 -11.4049 3.46286 -22.7933 0 0 0 
40 1 1 -34.1706 24.2842 -24.8265 0 0 0 
27 3 1 -22.6798 17.3233 -26.3154 0 0 0 
52 1 1 -22.4746 21.7205 -22.6742 0 0 0 
39 3 1 -41.1432 24.7121 -28.2089 0 0 0 
41 2 1 -36.1891 27.728 -24.0565 0 0 0 
42 3 1 -36.5131 31.0095 -25.0322 0 0 0 
45 3 1 -28.0179 33.7504 -23.4908 0 0 0 
48 3 1 -22.7236 31.7182 -20.7385 0 0 0 
47 2 1 -24.7616 29.8789 -22.9044 0 0 0 
49 1 1 -24.2939 25.0568 -23.6117 0 0 0 
44 2 1 -30.3143 30.7849 -24.0749 0 0 0 
46 1 1 -27.5047 27.0892 -24.0097 0 0 0 
43 1 1 -31.3145 26.8808 -24.4744 0 0 0 
51 3 1 -18.6081 28.8293 -24.6886 0 0 0 
50 2 1 -21.1663 26.2604 -24.5293 0 0 0 
7 1 1 -21.3315 -8.90733 -17.7607 0 0 0 
4 1 1 -21.7218 -12.5457 -17.0532 0 0 0 
3 3 1 -27.8916 -11.7286 -19.322 0 0 0 
8 2 1 -24.5748 -6.83185 -16.7673 0 0 0 
6 3 1 -17.1593 -8.85307 -17.3261 0 0 0 
5 2 1 -18.1925 -12.0095 -15.6627 0 0 0 
87 3 1 -17.4906 -17.9265 -18.1604 0 0 0 
14 2 1 -14.0176 -1.32949 -20.0849 0 0 0 
71 2 1 -13.7094 -1.61128 -14.2391 0 0 0 
13 1 1 -17.9078 -2.26852 -19.7338 0 0 0 
10 1 1 -20.0833 -5.2973 -18.8204 0 0 0 
73 1 1 -18.5688 -2.55017 -14.6498 0 0 0 
11 2 1 -22.2676 -2.04334 -19.814 0 0 0 
70 1 1 -16.6335 0.768114 -15.5843 0 0 0 
16 1 1 -18.0674 1.77183 -20.4835 0 0 0 
12 3 1 -23.8721 1.22386 -18.968 0 0 0 
15 3 1 -10.6617 -0.027643 -18.8504 0 0 0 
72 3 1 -12.6563 -3.28749 -11.2213 0 0 0 
33 3 1 -38.6481 13.0244 -22.5467 0 0 0 
22 1 1 -22.463 7.78505 -21.6723 0 0 0 
23 2 1 -25.432 7.66412 -18.7299 0 0 0 
25 1 1 -24.6414 10.788 -22.687 0 0 0 
29 2 1 -30.7083 11.9002 -19.6134 0 0 0 
28 1 1 -28.143 12.633 -22.7911 0 0 0 
60 3 1 -26.3433 12.5655 -15.9994 0 0 0 
24 3 1 -26.417 6.33166 -15.6676 0 0 0 
20 2 1 -18.2337 8.3063 -22.9442 0 0 0 
19 1 1 -19.4815 5.32865 -21.3374 0 0 0 
17 2 1 -14.8271 3.29422 -21.4987 0 0 0 
61 1 1 -18.3796 11.3458 -19.4617 0 0 0 
68 2 1 -12.6139 2.91344 -16.019 0 0 0 
62 2 1 -14.5939 9.72311 -20.4246 0 0 0 
67 1 1 -16.3169 4.3067 -16.836 0 0 0 
64 1 1 -18.0429 7.6838 -18.1248 0 0 0 
65 2 1 -20.2803 5.85762 -16.1222 0 0 0 
63 3 1 -13.0864 8.5395 -23.34 0 0 0 
69 3 1 -9.01199 2.80237 -14.8024 0 0 0 
34 1 1 -34.3455 16.7973 -24.7571 0 0 0 
32 2 1 -34.8852 12.656 -21.9134 0 0 0 
35 2 1 -38.2758 16.8656 -26.1255 0 0 0 
37 1 1 -35.2872 20.5035 -25.2534 0 0 0 
38 2 1 -38.39 22.7857 -26.3281 0 0 0 
36 3 1 -41.1664 17.2363 -28.707 0 0 0 
31 1 1 -31.6296 14.4506 -23.4641 0 0 0 
57 3 1 -28.1102 16.2509 -18.8613 0 0 0 
56 2 1 -24.5722 16.7218 -18.7209 0 0 0 
55 1 1 -21.7944 18.1681 -21.1685 0 0 0 
54 3 1 -15.4794 19.0958 -22.723 0 0 0 
53 2 1 -18.8522 20.0389 -23.6592 0 0 0 
59 2 1 -23.0877 12.2681 -18.0147 0 0 0 
58 1 1 -20.4767 14.5862 -20.0605 0 0 0 
111 3 1 -0.174467 -36.0768 -9.55401 0 0 0 
102 3 1 -12.8117 -38.3232 -12.1459 0 0 0 
105 3 1 -7.91488 -40.5869 -6.9113 0 0 0 
104 2 1 -10.3437 -38.1559 -6.1542 0 0 0 
106 1 1 -8.53351 -34.7515 -3.98761 0 0 0 
107 2 1 -7.07194 -33.7472 -0.235287 0 0 0 
110 2 1 -2.12295 -36.8713 -6.39893 0 0 0 
117 3 1 5.78117 -38.6262 -5.40119 0 0 0 
96 3 1 -19.6693 -33.9777 -16.7807 0 0 0 
101 2 1 -14.7908 -36.5816 -9.39946 0 0 0 
103 1 1 -11.8764 -34.309 -6.07951 0 0 0 
100 1 1 -15.2518 -32.9028 -7.76371 0 0 0 
97 1 1 -18.0825 -30.7021 -8.98202 0 0 0 
98 2 1 -17.1746 -30.2387 -5.02144 0 0 0 
95 2 1 -20.508 -31.793 -13.9139 0 0 0 
94 1 1 -20.3103 -28.6724 -11.4924 0 0 0 
91 1 1 -21.4844 -25.1345 -11.9287 0 0 0 
88 1 1 -21.9786 -21.3925 -12.6275 0 0 0 
86 2 1 -19.4183 -18.7356 -14.8838 0 0 0 
9 3 1 -27.0888 -4.10625 -16.9363 0 0 0 
2 2 1 -25.9721 -14.7636 -19.0163 0 0 0 
83 2 1 -25.8257 -13.9801 -13.2914 0 0 0 
82 1 1 -21.767 -13.5561 -12.7438 0 0 0 
1 1 1 -23.3777 -16.0702 -16.8888 0 0 0 
80 2 1 -24.8464 -10.1797 -12.6906 0 0 0 
79 1 1 -20.87 -9.76681 -13.1582 0 0 0 
84 3 1 -28.4813 -16.1987 -13.6856 0 0 0 
81 3 1 -28.0469 -8.44889 -12.5145 0 0 0 
85 1 1 -22.1857 -17.5105 -12.4616 0 0 0 
76 1 1 -19.2503 -6.2226 -13.5779 0 0 0 
74 2 1 -21.9544 -2.81518 -15.0128 0 0 0 
75 3 1 -24.9423 -0.604303 -13.7966 0 0 0 
78 3 1 -13.8247 -11.1183 -12.7295 0 0 0 
77 2 1 -16.0338 -8.52907 -12.3257 0 0 0 
30 3 1 -31.6179 11.9386 -16.2128 0 0 0 
66 3 1 -21.4957 2.7521 -14.5109 0 0 0 
115 1 1 1.54378 -37.6524 0.596904 0 0 0 
112 1 1 -1.73228 -37.3539 -1.4488 0 0 0 
113 2 1 -2.53923 -36.8392 2.49028 0 0 0 
114 3 1 -4.1739 -37.3188 5.93497 0 0 0 
109 1 1 -4.85459 -35.9871 -3.42535 0 0 0 
116 2 1 4.86308 -38.4212 -1.64955 0 0 0 
119 2 1 7.66741 -40.6942 0.477835 0 0 0 
121 1 1 7.81319 -38.4972 4.85719 0 0 0 
118 1 1 4.83509 -38.3825 2.40934 0 0 0 
120 3 1 9.79235 -40.173 -2.55181 0 0 0 
99 3 1 -15.1985 -27.7282 -2.9487 0 0 0 
108 3 1 -8.85476 -36.131 1.91118 0 0 0 
89 2 1 -22.1976 -23.8273 -16.0518 0 0 0 
92 2 1 -22.0843 -26.5044 -8.21548 0 0 0 
93 3 1 -19.6466 -24.9028 -6.12227 0 0 0 
90 3 1 -20.9655 -23.2059 -19.5911 0 0 0 
129 3 1 15.8761 -31.5266 9.22579 0 0 0 
128 2 1 15.6623 -34.9938 9.95027 0 0 0 
124 1 1 11.4083 -38.6962 5.99107 0 0 0 
123 3 1 6.11122 -36.4523 11.7039 0 0 0 
122 2 1 7.37447 -38.6365 8.94443 0 0 0 
125 2 1 13.0211 -42.2181 4.698 0 0 0 
127 1 1 15.0171 -38.0755 7.45549 0 0 0 
130 1 1 18.8518 -37.8834 8.07369 0 0 0 
132 3 1 25.2793 -39.7731 4.57201 0 0 0 
131 2 1 22.1366 -39.5373 6.37206 0 0 0 
134 2 1 25.6835 -35.6623 9.58699 0 0 0 
133 1 1 21.6935 -36.242 10.1788 0 0 0 
135 3 1 29.0397 -35.7354 8.07309 0 0 0 
126 3 1 13.2941 -45.7675 4.23341 0 0 0 
138 3 1 19.6672 -30.1135 16.2507 0 0 0 
136 1 1 23.7598 -34.4322 12.7914 0 0 0 
137 2 1 21.3566 -33.0032 15.4117 0 0 0 
185 2 1 25.2233 18.4774 9.56127 0 0 0 
186 3 1 26.534 18.924 5.96862 0 0 0 
189 3 1 18.4147 24.0645 7.19383 0 0 0 
184 1 1 25.0892 18.5963 13.5845 0 0 0 
187 1 1 23.0607 21.8192 12.853 0 0 0 
190 1 1 22.2593 25.4369 13.8282 0 0 0 
188 2 1 20.1479 22.3783 10.1819 0 0 0 
195 3 1 16.799 30.9297 8.66404 0 0 0 
194 2 1 19.3527 31.5631 11.2405 0 0 0 
193 1 1 20.9627 29.1425 14.1453 0 0 0 
201 3 1 14.83 39.837 14.333 0 0 0 
200 2 1 17.5833 38.3969 15.8888 0 0 0 
140 2 1 30.2143 -32.0657 13.728 0 0 0 
141 3 1 33.5395 -33.2725 13.0152 0 0 0 
139 1 1 26.3375 -32.3246 14.8246 0 0 0 
142 1 1 27.7189 -29.6977 17.2405 0 0 0 
145 1 1 28.1019 -26.4448 19.3352 0 0 0 
143 2 1 30.9334 -30.6226 19.0333 0 0 0 
146 2 1 31.4481 -24.261 19.4619 0 0 0 
148 1 1 27.5728 -23.2802 21.1888 0 0 0 
151 1 1 28.1109 -19.5528 21.946 0 0 0 
150 3 1 22.3793 -22.8217 25.3655 0 0 0 
149 2 1 25.0177 -21.9112 23.1299 0 0 0 
154 1 1 27.9108 -15.7596 22.3846 0 0 0 
157 1 1 27.1537 -12.0819 22.9127 0 0 0 
159 3 1 24.3737 -8.02238 17.1645 0 0 0 
158 2 1 25.1649 -10.254 19.8417 0 0 0 
160 1 1 27.0203 -8.4049 24.0364 0 0 0 
163 1 1 27.3631 -4.57627 23.9722 0 0 0 
168 3 1 27.4629 -0.658416 16.1837 0 0 0 
174 3 1 28.624 5.65219 13.9173 0 0 0 
166 1 1 27.1543 -0.719535 23.2805 0 0 0 
167 2 1 26.3776 0.26156 19.7129 0 0 0 
173 2 1 27.5785 5.65123 17.5964 0 0 0 
169 1 1 26.9951 3.12969 23.5231 0 0 0 
170 2 1 26.7117 6.05535 26.2675 0 0 0 
172 1 1 27.4289 6.2071 21.3948 0 0 0 
180 3 1 29.8828 11.5423 10.4196 0 0 0 
181 1 1 26.9261 16.3216 16.1704 0 0 0 
179 2 1 29.3926 12.3308 13.939 0 0 0 
178 1 1 27.6913 12.8208 17.6761 0 0 0 
175 1 1 27.4782 9.86072 20.1284 0 0 0 
176 2 1 28.3084 13.0548 22.4949 0 0 0 
177 3 1 30.3856 15.09 25.1182 0 0 0 
171 3 1 26.3772 7.62259 29.4978 0 0 0 
182 2 1 27.9413 20.1213 17.153 0 0 0 
191 2 1 23.3649 26.6679 17.284 0 0 0 
183 3 1 25.924 22.8623 18.9942 0 0 0 
192 3 1 25.4414 27.5073 20.1893 0 0 0 
199 1 1 19.7426 35.7253 18.0275 0 0 0 
196 1 1 20.3322 32.5129 16.0995 0 0 0 
197 2 1 20.786 31.817 20.1008 0 0 0 
198 3 1 20.6047 29.6626 23.013 0 0 0 
207 3 1 20.2031 46.6321 16.7871 0 0 0 
202 1 1 19.4547 37.9853 21.1659 0 0 0 
206 2 1 19.1765 44.2823 19.5584 0 0 0 
205 1 1 19.9701 41.6255 22.5639 0 0 0 
208 1 1 19.7922 45.1182 24.3134 0 0 0 
203 2 1 18.9709 37.5645 25.1865 0 0 0 
204 3 1 17.4413 36.492 28.2965 0 0 0 
209 2 1 20.8353 46.4061 27.9827 0 0 0 
212 2 1 18.6871 51.2949 21.3531 0 0 0 
213 3 1 18.8924 54.4391 19.8919 0 0 0 
211 1 1 18.8957 48.8655 24.7493 0 0 0 
216 3 1 14.3087 57.9601 27.7486 0 0 0 
144 3 1 33.9111 -32.084 20.6384 0 0 0 
147 3 1 34.7693 -23.984 18.2457 0 0 0 
155 2 1 31.4807 -13.9649 23.4082 0 0 0 
153 3 1 34.9877 -17.2485 20.4127 0 0 0 
152 2 1 31.9192 -18.4783 22.3234 0 0 0 
162 3 1 23.5482 -4.45679 28.3073 0 0 0 
161 2 1 25.865 -7.02219 27.6386 0 0 0 
156 3 1 34.3226 -13.2226 25.4589 0 0 0 
164 2 1 29.5642 -2.15138 26.378 0 0 0 
165 3 1 30.5162 1.03886 27.2586 0 0 0 
215 2 1 16.659 55.3107 26.269 0 0 0 
214 1 1 18.0889 52.0696 26.8872 0 0 0 
210 3 1 19.7374 46.4804 31.3029 0 0 0 
217 1 1 18.0258 54.1048 30.2028 0 0 0 
219 3 1 23.5339 52.3045 34.0982 0 0 0 
220 1 1 17.4659 56.1323 33.4287 0 0 0 
218 2 1 20.1054 52.6093 33.3263 0 0 0 
222 3 1 16.6312 63.4491 32.878 0 0 0 
221 2 1 16.8857 59.9735 32.5235 0 0 0 
ITEM: TIMESTEP
300000
ITEM: NUMBER OF ATOMS
222
ITEM: BOX BOUNDS pp pp pp
-188.925 188.925
-188.925 188.925
-188.925 188.925
ITEM: ATOMS id type mol x y z ix iy iz 
21 3 1 -37.3448 -20.337 -14.6248 0 0 0 
3 3 1 -14.7759 -16.1723 -16.8507 0 0 0 
96 3 1 -23.2309 -6.42942 -12.3738 0 0 0 
15 3 1 -29.9899 -7.12769 -16.0712 0 0 0 
6 3 1 -23.3228 -5.55019 -17.3894 0 0 0 
5 2 1 -20.4448 -7.11521 -16.4115 0 0 0 
4 1 1 -17.0933 -9.36369 -17.3838 0 0 0 
1 1 1 -13.9545 -9.11248 -19.6511 0 0 0 
2 2 1 -14.1024 -12.6925 -17.5924 0 0 0 
126 3 1 12.6222 -14.2852 -15.0778 0 0 0 
125 2 1 11.0341 -10.9121 -13.9944 0 0 0 
127 1 1 12.6101 -6.62111 -15.1736 0 0 0 
131 2 1 19.6003 -8.2785 -14.7985 0 0 0 
132 3 1 23.2917 -8.23676 -15.1912 0 0 0 
108 3 1 -12.4044 -3.03128 -14.7525 0 0 0 
102 3 1 -18.183 -4.15543 -12.6888 0 0 0 
111 3 1 -8.56504 -6.70278 -21.5152 0 0 0 
129 3 1 12.8403 0.495285 -16.5917 0 0 0 
128 2 1 13.4605 -2.85199 -15.367 0 0 0 
133 1 1 19.2967 -3.37028 -13.8606 0 0 0 
130 1 1 16.4031 -5.84637 -14.5602 0 0 0 
136 1 1 22.6304 -1.69563 -13.3492 0 0 0 
134 2 1 18.9234 0.228894 -12.4585 0 0 0 
138 3 1 29.3158 -4.76137 -11.419 0 0 0 
137 2 1 26.0789 -3.80136 -13.2505 0 0 0 
143 2 1 31.8918 0.00347653 -12.9734 0 0 0 
144 3 1 34.3069 -1.49568 -10.4949 0 0 0 
139 1 1 25.4399 0.744782 -13.1811 0 0 0 
147 3 1 29.9938 11.5881 -8.63677 0 0 0 
142 1 1 28.8799 2.57964 -12.7772 0 0 0 
145 1 1 31.4949 5.11988 -11.5392 0 0 0 
153 3 1 34.1369 13.7163 -3.90903 0 0 0 
57 3 1 -65.648 -42.4795 -7.4529 0 0 0 
56 2 1 -65.3508 -38.8235 -8.22474 0 0 0 
58 1 1 -62.0423 -34.7006 -8.5465 0 0 0 
59 2 1 -58.7082 -33.2052 -6.80342 0 0 0 
64 1 1 -57.0458 -29.6691 -10.265 0 0 0 
62 2 1 -58.3947 -31.9544 -14.6101 0 0 0 
61 1 1 -59.5702 -32.4367 -10.5971 0 0 0 
65 2 1 -58.3846 -27.2541 -8.08343 0 0 0 
63 3 1 -58.2667 -31.9999 -18.0455 0 0 0 
36 3 1 -51.589 -28.4795 -7.11323 0 0 0 
67 1 1 -55.0033 -26.4624 -9.8912 0 0 0 
66 3 1 -61.5219 -25.4757 -6.98214 0 0 0 
70 1 1 -52.267 -23.8273 -9.19621 0 0 0 
76 1 1 -46.7336 -18.5424 -7.97758 0 0 0 
73 1 1 -49.5984 -21.0575 -8.35102 0 0 0 
71 2 1 -53.4145 -20.7805 -6.8219 0 0 0 
27 3 1 -44.7015 -23.3434 -10.1023 0 0 0 
81 3 1 -38.5276 -12.9432 -11.7471 0 0 0 
80 2 1 -40.8814 -16.0099 -11.5192 0 0 0 
79 1 1 -43.2597 -16.5401 -8.22464 0 0 0 
26 2 1 -41.7433 -21.8688 -9.0374 0 0 0 
25 1 1 -39.2495 -19.0915 -7.32966 0 0 0 
22 1 1 -35.8889 -17.2717 -8.12525 0 0 0 
20 2 1 -35.8337 -17.9962 -12.3977 0 0 0 
19 1 1 -33.0567 -16.1515 -10.3805 0 0 0 
16 1 1 -30.2048 -14.2016 -12.0532 0 0 0 
90 3 1 -31.2028 -19.5547 -7.33039 0 0 0 
89 2 1 -31.1897 -15.8978 -6.41143 0 0 0 
8 2 1 -18.6404 -15.0302 -13.3628 0 0 0 
11 2 1 -23.7442 -16.129 -11.4268 0 0 0 
9 3 1 -17.8197 -18.5373 -13.3903 0 0 0 
12 3 1 -23.8596 -18.2312 -8.16393 0 0 0 
99 3 1 -17.2194 -17.7201 -8.39152 0 0 0 
105 3 1 -10.365 -16.575 -12.6004 0 0 0 
82 1 1 -40.5639 -14.6296 -6.40341 0 0 0 
85 1 1 -37.0162 -13.1266 -6.21549 0 0 0 
83 2 1 -40.7839 -14.4284 -2.45231 0 0 0 
17 2 1 -33.2889 -11.7548 -11.6721 0 0 0 