ITEM: TIMESTEP
0
ITEM: NUMBER OF ATOMS
228
ITEM: BOX BOUNDS pp pp pp
-190.612 190.612
-190.612 190.612
-190.612 190.612
ITEM: ATOMS id type mol x y z ix iy iz 
1 1 1 -22.011 -27.0959 -132.457 0 0 0 
2 2 1 -25.4005 -27.1544 -130.586 0 0 0 
3 3 1 -28.8466 -27.8603 -129.344 0 0 0 
4 1 1 -21.4255 -26.3607 -128.939 0 0 0 
7 1 1 -20.84 -25.6256 -125.42 0 0 0 
8 2 1 -24.2295 -25.684 -123.549 0 0 0 
9 3 1 -27.6755 -26.39 -122.307 0 0 0 
10 1 1 -20.2544 -24.8904 -121.902 0 0 0 
5 2 1 -17.898 -27.2999 -129.837 0 0 0 
6 3 1 -14.3108 -28.2708 -129.011 0 0 0 
11 2 1 -16.7269 -25.8296 -122.8 0 0 0 
12 3 1 -13.1397 -26.8004 -121.975 0 0 0 
14 2 1 -23.0584 -24.2137 -116.512 0 0 0 
15 3 1 -26.5045 -24.9196 -115.27 0 0 0 
13 1 1 -19.6689 -24.1552 -118.384 0 0 0 
16 1 1 -19.0834 -23.4201 -114.865 0 0 0 
17 2 1 -15.5559 -24.3592 -115.763 0 0 0 
18 3 1 -11.9687 -25.3301 -114.938 0 0 0 
19 1 1 -18.4978 -22.6849 -111.347 0 0 0 
20 2 1 -21.8874 -22.7434 -109.475 0 0 0 
21 3 1 -25.3334 -23.4493 -108.233 0 0 0 
26 2 1 -20.7163 -21.2731 -102.439 0 0 0 
27 3 1 -24.1623 -21.979 -101.196 0 0 0 
22 1 1 -17.9123 -21.9497 -107.828 0 0 0 
23 2 1 -14.3848 -22.8889 -108.726 0 0 0 
24 3 1 -10.7976 -23.8598 -107.901 0 0 0 
25 1 1 -17.3268 -21.2146 -104.31 0 0 0 
28 1 1 -16.7412 -20.4794 -100.792 0 0 0 
29 2 1 -13.2138 -21.4186 -101.689 0 0 0 
30 3 1 -9.62656 -22.3895 -100.864 0 0 0 
33 3 1 -22.9913 -20.5086 -94.1596 0 0 0 
36 3 1 -8.4555 -20.9191 -93.8274 0 0 0 
31 1 1 -16.1557 -19.7443 -97.2732 0 0 0 
32 2 1 -19.5452 -19.8027 -95.4019 0 0 0 
34 1 1 -15.5702 -19.0091 -93.7548 0 0 0 
35 2 1 -12.0427 -19.9483 -94.6525 0 0 0 
39 3 1 -21.8202 -19.0383 -87.1228 0 0 0 
37 1 1 -14.9846 -18.2739 -90.2364 0 0 0 
38 2 1 -18.3742 -18.3324 -88.3651 0 0 0 
40 1 1 -14.3991 -17.5388 -86.718 0 0 0 
41 2 1 -10.8717 -18.4779 -87.6157 0 0 0 
43 1 1 -13.8136 -16.8036 -83.1996 0 0 0 
44 2 1 -17.2031 -16.8621 -81.3283 0 0 0 
42 3 1 -7.28443 -19.4488 -86.7906 0 0 0 
47 2 1 -9.70059 -17.0076 -80.5789 0 0 0 
45 3 1 -20.6492 -17.568 -80.0861 0 0 0 
46 1 1 -13.228 -16.0684 -79.6812 0 0 0 
49 1 1 -12.6425 -15.3333 -76.1628 0 0 0 
50 2 1 -16.032 -15.3918 -74.2915 0 0 0 
51 3 1 -19.4781 -16.0977 -73.0493 0 0 0 
52 1 1 -12.057 -14.5981 -72.6444 0 0 0 
48 3 1 -6.11337 -17.9785 -79.7538 0 0 0 
53 2 1 -8.52953 -15.5373 -73.5421 0 0 0 
54 3 1 -4.94231 -16.5082 -72.7169 0 0 0 
55 1 1 -11.4715 -13.8629 -69.126 0 0 0 
56 2 1 -14.861 -13.9214 -67.2547 0 0 0 
57 3 1 -18.3071 -14.6273 -66.0125 0 0 0 
58 1 1 -10.8859 -13.1278 -65.6076 0 0 0 
61 1 1 -10.3004 -12.3926 -62.0892 0 0 0 
62 2 1 -13.6899 -12.4511 -60.2179 0 0 0 
59 2 1 -7.35847 -14.067 -66.5053 0 0 0 
60 3 1 -3.77125 -15.0378 -65.6801 0 0 0 
63 3 1 -17.136 -13.157 -58.9757 0 0 0 
68 2 1 -12.5189 -10.9808 -53.1811 0 0 0 
69 3 1 -15.9649 -11.6867 -51.9389 0 0 0 
64 1 1 -9.71487 -11.6575 -58.5708 0 0 0 
65 2 1 -6.18741 -12.5966 -59.4685 0 0 0 
66 3 1 -2.60019 -13.5675 -58.6433 0 0 0 
67 1 1 -9.12934 -10.9223 -55.0524 0 0 0 
70 1 1 -8.54381 -10.1871 -51.534 0 0 0 
71 2 1 -5.01635 -11.1263 -52.4317 0 0 0 
72 3 1 -1.42913 -12.0972 -51.6065 0 0 0 
75 3 1 -14.7939 -10.2164 -44.9021 0 0 0 
78 3 1 -0.258066 -10.6268 -44.5697 0 0 0 
74 2 1 -11.3478 -9.51044 -46.1443 0 0 0 
73 1 1 -7.95828 -9.45196 -48.0156 0 0 0 
76 1 1 -7.37275 -8.7168 -44.4972 0 0 0 
77 2 1 -3.84528 -9.65598 -45.3949 0 0 0 
79 1 1 -6.78722 -7.98163 -40.9788 0 0 0 
80 2 1 -10.1767 -8.04012 -39.1075 0 0 0 
81 3 1 -13.6228 -8.74604 -37.8652 0 0 0 
87 3 1 -12.4517 -7.27571 -30.8284 0 0 0 
82 1 1 -6.20169 -7.24647 -37.4604 0 0 0 
83 2 1 -2.67422 -8.18566 -38.3581 0 0 0 
85 1 1 -5.61616 -6.51131 -33.942 0 0 0 
86 2 1 -9.00567 -6.56979 -32.0707 0 0 0 
88 1 1 -5.03063 -5.77614 -30.4236 0 0 0 
89 2 1 -1.50316 -6.71533 -31.3213 0 0 0 
84 3 1 0.912995 -9.15652 -37.5329 0 0 0 
90 3 1 2.08406 -7.68619 -30.4962 0 0 0 
93 3 1 -11.2807 -5.80539 -23.7916 0 0 0 
91 1 1 -4.4451 -5.04098 -26.9052 0 0 0 
92 2 1 -7.83461 -5.09946 -25.0339 0 0 0 
94 1 1 -3.85956 -4.30582 -23.3868 0 0 0 
95 2 1 -0.332099 -5.245 -24.2845 0 0 0 
96 3 1 3.25512 -6.21586 -23.4593 0 0 0 
99 3 1 -10.1096 -4.33506 -16.7548 0 0 0 
97 1 1 -3.27403 -3.57065 -19.8684 0 0 0 
98 2 1 -6.66355 -3.62914 -17.9971 0 0 0 
100 1 1 -2.6885 -2.83549 -16.35 0 0 0 
103 1 1 -2.10297 -2.10033 -12.8316 0 0 0 
104 2 1 -5.49249 -2.15881 -10.9603 0 0 0 
101 2 1 0.838961 -3.77467 -17.2477 0 0 0 
102 3 1 4.42618 -4.74554 -16.4225 0 0 0 
107 2 1 2.01002 -2.30435 -10.2109 0 0 0 
105 3 1 -8.93856 -2.86473 -9.71804 0 0 0 
106 1 1 -1.51744 -1.36516 -9.31319 0 0 0 
109 1 1 -0.931911 -0.629998 -5.79479 0 0 0 
110 2 1 -4.32143 -0.688482 -3.92353 0 0 0 
111 3 1 -7.7675 -1.3944 -2.68124 0 0 0 
108 3 1 5.59724 -3.27521 -9.38575 0 0 0 
113 2 1 3.18108 -0.83402 -3.17409 0 0 0 
114 3 1 6.7683 -1.80488 -2.34895 0 0 0 
112 1 1 -0.34638 0.105164 -2.27638 0 0 0 
120 3 1 7.93936 -0.334554 4.68786 0 0 0 
116 2 1 -3.15037 0.781844 3.11327 0 0 0 
117 3 1 -6.59644 0.075921 4.35556 0 0 0 
115 1 1 0.23915 0.840328 1.24202 0 0 0 
118 1 1 0.82468 1.57549 4.76042 0 0 0 
119 2 1 4.35215 0.636306 3.86271 0 0 0 
121 1 1 1.41021 2.31066 8.27882 0 0 0 
122 2 1 -1.97931 2.25217 10.1501 0 0 0 
123 3 1 -5.42537 1.54625 11.3924 0 0 0 
128 2 1 -0.808244 3.7225 17.1869 0 0 0 
129 3 1 -4.25431 3.01658 18.4292 0 0 0 
124 1 1 1.99574 3.04582 11.7972 0 0 0 
125 2 1 5.52321 2.10663 10.8995 0 0 0 
126 3 1 9.11042 1.13577 11.7247 0 0 0 
127 1 1 2.58127 3.78098 15.3156 0 0 0 
130 1 1 3.1668 4.51615 18.834 0 0 0 
131 2 1 6.69427 3.57696 17.9363 0 0 0 
132 3 1 10.2815 2.6061 18.7614 0 0 0 
135 3 1 -3.08325 4.4869 25.466 0 0 0 
133 1 1 3.75233 5.25131 22.3524 0 0 0 
134 2 1 0.362816 5.19283 24.2237 0 0 0 
136 1 1 4.33786 5.98647 25.8708 0 0 0 
137 2 1 7.86533 5.04729 24.9731 0 0 0 
139 1 1 4.9234 6.72164 29.3892 0 0 0 
138 3 1 11.4525 4.07643 25.7983 0 0 0 
141 3 1 -1.91219 5.95723 32.5028 0 0 0 
147 3 1 -0.74113 7.42756 39.5396 0 0 0 
140 2 1 1.53388 6.66315 31.2605 0 0 0 
142 1 1 5.50893 7.4568 32.9076 0 0 0 
143 2 1 9.03639 6.51761 32.0099 0 0 0 
145 1 1 6.09446 8.19196 36.426 0 0 0 
146 2 1 2.70494 8.13348 38.2973 0 0 0 
148 1 1 6.67999 8.92713 39.9444 0 0 0 
144 3 1 12.6236 5.54675 32.8351 0 0 0 
149 2 1 10.2074 7.98794 39.0467 0 0 0 
150 3 1 13.7947 7.01708 39.8719 0 0 0 
151 1 1 7.26552 9.66229 43.4628 0 0 0 
152 2 1 3.876 9.60381 45.3341 0 0 0 
153 3 1 0.429931 8.89788 46.5764 0 0 0 
155 2 1 11.3785 9.45827 46.0835 0 0 0 
156 3 1 14.9657 8.48741 46.9087 0 0 0 
154 1 1 7.85105 10.3974 46.9812 0 0 0 
162 3 1 16.1368 9.95773 53.9455 0 0 0 
157 1 1 8.43658 11.1326 50.4996 0 0 0 
158 2 1 5.04706 11.0741 52.3709 0 0 0 
159 3 1 1.60099 10.3682 53.6132 0 0 0 
160 1 1 9.02211 11.8678 54.018 0 0 0 
163 1 1 9.60764 12.6029 57.5364 0 0 0 
164 2 1 6.21812 12.5445 59.4077 0 0 0 
161 2 1 12.5496 10.9286 53.1203 0 0 0 
167 2 1 13.7206 12.3989 60.1571 0 0 0 
165 3 1 2.77205 11.8385 60.65 0 0 0 
170 2 1 7.38919 14.0148 66.4445 0 0 0 
171 3 1 3.94312 13.3089 67.6868 0 0 0 
166 1 1 10.1932 13.3381 61.0548 0 0 0 
168 3 1 17.3078 11.4281 60.9823 0 0 0 
169 1 1 10.7787 14.0733 64.5732 0 0 0 
172 1 1 11.3642 14.8084 68.0916 0 0 0 
173 2 1 14.8917 13.8692 67.1939 0 0 0 
174 3 1 18.4789 12.8984 68.0191 0 0 0 
176 2 1 8.56025 15.4851 73.4813 0 0 0 
177 3 1 5.11418 14.7792 74.7236 0 0 0 
175 1 1 11.9498 15.5436 71.61 0 0 0 
178 1 1 12.5353 16.2788 75.1284 0 0 0 
179 2 1 16.0628 15.3396 74.2307 0 0 0 
180 3 1 19.65 14.3687 75.0559 0 0 0 
181 1 1 13.1208 17.0139 78.6468 0 0 0 
182 2 1 9.73131 16.9554 80.5181 0 0 0 
183 3 1 6.28524 16.2495 81.7604 0 0 0 
189 3 1 7.4563 17.7198 88.7972 0 0 0 
184 1 1 13.7064 17.7491 82.1652 0 0 0 
185 2 1 17.2338 16.8099 81.2675 0 0 0 
187 1 1 14.2919 18.4842 85.6836 0 0 0 
188 2 1 10.9024 18.4258 87.5549 0 0 0 
190 1 1 14.8774 19.2194 89.202 0 0 0 
191 2 1 18.4049 18.2802 88.3043 0 0 0 
186 3 1 20.821 15.839 82.0927 0 0 0 
192 3 1 21.9921 17.3094 89.1295 0 0 0 
195 3 1 8.62736 19.1902 95.834 0 0 0 
193 1 1 15.4629 19.9546 92.7204 0 0 0 
194 2 1 12.0734 19.8961 94.5917 0 0 0 
197 2 1 19.5759 19.7506 95.3411 0 0 0 
198 3 1 23.1632 18.7797 96.1663 0 0 0 
196 1 1 16.0485 20.6897 96.2388 0 0 0 
199 1 1 16.634 21.4249 99.7572 0 0 0 
201 3 1 9.79842 20.6605 102.871 0 0 0 
200 2 1 13.2445 21.3664 101.628 0 0 0 
202 1 1 17.2195 22.1601 103.276 0 0 0 
205 1 1 17.8051 22.8952 106.794 0 0 0 
206 2 1 14.4155 22.8367 108.665 0 0 0 
207 3 1 10.9695 22.1308 109.907 0 0 0 
208 1 1 18.3906 23.6304 110.312 0 0 0 
203 2 1 20.747 21.2209 102.378 0 0 0 
204 3 1 24.3342 20.25 103.203 0 0 0 
209 2 1 21.9181 22.6912 109.415 0 0 0 
210 3 1 25.5053 21.7203 110.24 0 0 0 
211 1 1 18.9761 24.3656 113.831 0 0 0 
212 2 1 15.5866 24.3071 115.702 0 0 0 
213 3 1 12.1405 23.6012 116.944 0 0 0 
214 1 1 19.5617 25.1007 117.349 0 0 0 
215 2 1 23.0891 24.1615 116.451 0 0 0 
216 3 1 26.6763 23.1907 117.277 0 0 0 
218 2 1 16.7577 25.7774 122.739 0 0 0 
219 3 1 13.3116 25.0715 123.981 0 0 0 
224 2 1 17.9287 27.2477 129.776 0 0 0 
217 1 1 20.1472 25.8359 120.868 0 0 0 
220 1 1 20.7327 26.571 124.386 0 0 0 
221 2 1 24.2602 25.6319 123.488 0 0 0 
222 3 1 27.8474 24.661 124.313 0 0 0 
223 1 1 21.3182 27.3062 127.904 0 0 0 
225 3 1 14.4827 26.5418 131.018 0 0 0 
226 1 1 21.9038 28.0414 131.423 0 0 0 
227 2 1 25.4312 27.1022 130.525 0 0 0 
228 3 1 29.0185 26.1313 131.35 0 0 0 
ITEM: TIMESTEP
100000
ITEM: NUMBER OF ATOMS
228
ITEM: BOX BOUNDS pp pp pp
-190.612 190.612
-190.612 190.612
-190.612 190.612
ITEM: ATOMS id type mol x y z ix iy iz 
6 3 1 -38.7613 -66.9352 -75.1388 0 0 0 
9 3 1 -42.8817 -61.3867 -82.4816 0 0 0 
12 3 1 -39.3124 -53.2733 -88.0511 0 0 0 
1 1 1 -31.6256 -67.2364 -80.9195 0 0 0 
2 2 1 -31.3083 -65.2459 -84.497 0 0 0 
5 2 1 -36.6645 -64.7259 -77.524 0 0 0 
4 1 1 -33.903 -64.2912 -80.4857 0 0 0 
3 3 1 -34.2541 -64.5545 -87.0092 0 0 0 
7 1 1 -35.4654 -61.0532 -81.765 0 0 0 
8 2 1 -39.4263 -60.513 -82.7809 0 0 0 
10 1 1 -35.8143 -57.1594 -82.3983 0 0 0 
11 2 1 -38.0267 -55.0349 -85.0003 0 0 0 
13 1 1 -35.0657 -53.4716 -81.8825 0 0 0 
15 3 1 -34.8247 -50.1407 -88.6607 0 0 0 
16 1 1 -35.1048 -49.8896 -80.5421 0 0 0 
17 2 1 -37.7232 -48.9789 -78.1144 0 0 0 
14 2 1 -34.4831 -51.1865 -85.2039 0 0 0 
21 3 1 -31.8778 -42.3425 -85.1814 0 0 0 
20 2 1 -31.5898 -44.3353 -82.0062 0 0 0 
18 3 1 -39.7115 -51.8031 -79.1038 0 0 0 
19 1 1 -34.0394 -46.2609 -79.5986 0 0 0 
22 1 1 -33.4396 -42.709 -78.2288 0 0 0 
23 2 1 -30.3653 -40.5958 -79.9841 0 0 0 
25 1 1 -33.0866 -40.0723 -75.2813 0 0 0 
28 1 1 -31.6074 -37.8321 -72.6242 0 0 0 
33 3 1 -21.3305 -36.3839 -70.9285 0 0 0 
24 3 1 -28.5325 -38.1957 -82.3807 0 0 0 
26 2 1 -36.1296 -38.2227 -73.4982 0 0 0 
27 3 1 -37.762 -35.2358 -72.7127 0 0 0 
29 2 1 -33.5481 -35.9318 -69.6983 0 0 0 
30 3 1 -36.5109 -34.4687 -67.9851 0 0 0 
31 1 1 -29.1245 -35.6718 -70.5056 0 0 0 
34 1 1 -28.2988 -33.1942 -67.7521 0 0 0 
35 2 1 -30.925 -30.6388 -66.266 0 0 0 
32 2 1 -25.0642 -35.1191 -70.7407 0 0 0 
37 1 1 -26.5193 -31.2691 -64.8447 0 0 0 
38 2 1 -22.4843 -31.2005 -64.468 0 0 0 
39 3 1 -19.1817 -30.5654 -65.7387 0 0 0 
40 1 1 -25.513 -28.3545 -62.511 0 0 0 
43 1 1 -23.5167 -26.2731 -59.9377 0 0 0 
44 2 1 -21.1546 -28.0678 -57.2217 0 0 0 
45 3 1 -18.6197 -30.4366 -56.7376 0 0 0 
51 3 1 -17.8331 -24.4216 -51.9654 0 0 0 
50 2 1 -17.7132 -21.0052 -53.5362 0 0 0 
36 3 1 -34.4611 -29.4766 -66.1583 0 0 0 
41 2 1 -27.3438 -24.8556 -61.8908 0 0 0 
42 3 1 -28.1807 -22.4508 -64.7157 0 0 0 
46 1 1 -22.2793 -23.055 -58.1279 0 0 0 
47 2 1 -24.2843 -19.6383 -58.8449 0 0 0 
48 3 1 -27.2411 -18.8697 -56.8978 0 0 0 
49 1 1 -20.6847 -20.2296 -56.2147 0 0 0 
52 1 1 -19.7743 -16.7085 -54.8193 0 0 0 
53 2 1 -16.4037 -16.634 -52.6758 0 0 0 
54 3 1 -15.1077 -18.2597 -49.4459 0 0 0 
55 1 1 -19.568 -12.9898 -54.0219 0 0 0 
56 2 1 -18.2241 -10.121 -56.6804 0 0 0 
58 1 1 -19.6886 -9.56285 -52.2849 0 0 0 
61 1 1 -20.3567 -6.36783 -50.0698 0 0 0 
57 3 1 -16.0676 -10.3552 -59.7978 0 0 0 
59 2 1 -16.5641 -7.08321 -52.8094 0 0 0 
60 3 1 -13.7702 -4.72466 -51.983 0 0 0 
62 2 1 -20.0917 -2.77375 -51.6888 0 0 0 
65 2 1 -24.3901 -4.19616 -44.7553 0 0 0 
64 1 1 -21.3735 -3.9009 -47.4154 0 0 0 
63 3 1 -20.0274 0.955631 -52.1348 0 0 0 
66 3 1 -27.5386 -3.95737 -43.2492 0 0 0 
69 3 1 -16.0837 -0.231077 -50.0075 0 0 0 
67 1 1 -20.7443 -0.473974 -45.811 0 0 0 
70 1 1 -20.1611 2.86609 -43.7278 0 0 0 
68 2 1 -17.9814 1.15022 -47.1983 0 0 0 
71 2 1 -17.3702 5.89077 -43.5725 0 0 0 
72 3 1 -14.7315 8.04019 -44.4097 0 0 0 
73 1 1 -20.9446 5.34299 -41.1113 0 0 0 
77 2 1 -23.454 5.28945 -34.5833 0 0 0 
78 3 1 -25.3716 3.07373 -32.4672 0 0 0 
82 1 1 -24.0324 13.2417 -33.2301 0 0 0 
76 1 1 -22.3893 7.41957 -37.9461 0 0 0 
79 1 1 -22.9911 10.3981 -35.5422 0 0 0 
74 2 1 -18.625 8.75514 -40.8116 0 0 0 
80 2 1 -23.2549 13.7486 -37.6921 0 0 0 
75 3 1 -16.1619 10.6953 -38.6333 0 0 0 
81 3 1 -22.1204 16.3298 -39.5909 0 0 0 
83 2 1 -26.3766 12.2074 -30.1075 0 0 0 
84 3 1 -26.4608 8.38764 -29.8217 0 0 0 
93 3 1 -31.7346 25.5121 -24.2681 0 0 0 
86 2 1 -22.5368 19.7317 -33.5279 0 0 0 
87 3 1 -20.4509 21.8073 -35.9067 0 0 0 
85 1 1 -24.3144 16.6916 -31.4887 0 0 0 
89 2 1 -21.0943 21.0501 -27.4825 0 0 0 
88 1 1 -24.5293 19.8902 -29.2235 0 0 0 
91 1 1 -25.3433 23.4183 -27.7546 0 0 0 
90 3 1 -18.5256 21.2169 -24.5402 0 0 0 
96 3 1 -29.0032 30.1786 -29.0226 0 0 0 
92 2 1 -28.8703 25.0559 -26.6528 0 0 0 
94 1 1 -24.3249 26.8173 -26.2354 0 0 0 
95 2 1 -25.4702 30.2241 -28.1642 0 0 0 
98 2 1 -21.0182 33.0615 -24.9408 0 0 0 
97 1 1 -22.4191 29.3184 -23.8978 0 0 0 
99 3 1 -19.3411 35.4672 -27.1713 0 0 0 
100 1 1 -20.3224 30.2786 -20.6162 0 0 0 
103 1 1 -18.4199 29.939 -17.1252 0 0 0 
106 1 1 -16.811 29.0671 -13.6826 0 0 0 
101 2 1 -19.0115 33.953 -19.9831 0 0 0 
102 3 1 -18.7477 37.3129 -19.255 0 0 0 
105 3 1 -21.0585 35.4679 -14.5835 0 0 0 
104 2 1 -18.7468 32.8729 -14.2991 0 0 0 
107 2 1 -15.696 31.9233 -11.2872 0 0 0 
110 2 1 -15.577 29.0122 -7.25945 0 0 0 
109 1 1 -15.0523 27.4083 -10.6703 0 0 0 
115 1 1 -11.2296 23.1147 -5.39563 0 0 0 
112 1 1 -13.1596 25.4193 -7.77175 0 0 0 
113 2 1 -13.2555 27.0495 -4.36767 0 0 0 
119 2 1 -13.8487 23.9917 0.253217 0 0 0 
118 1 1 -10.6538 22.213 -1.64151 0 0 0 
123 3 1 -15.8759 23.6811 5.99636 0 0 0 
108 3 1 -15.609 35.3802 -10.985 0 0 0 
111 3 1 -17.0972 29.5158 -3.72931 0 0 0 
120 3 1 -17.4535 24.3133 1.09048 0 0 0 
116 2 1 -8.98342 19.8991 -5.55623 0 0 0 
122 2 1 -12.7976 22.0202 4.63085 0 0 0 
121 1 1 -9.63175 21.7133 2.05205 0 0 0 
124 1 1 -7.9351 21.9353 5.61569 0 0 0 
127 1 1 -5.19911 23.4364 8.00631 0 0 0 
125 2 1 -8.414 19.8489 9.08732 0 0 0 
126 3 1 -9.92808 19.5314 12.607 0 0 0 
130 1 1 -2.19773 23.3598 10.5177 0 0 0 
131 2 1 1.45566 22.599 8.98288 0 0 0 
132 3 1 4.46401 20.2791 9.43824 0 0 0 
114 3 1 -10.9833 28.7363 -2.43359 0 0 0 
117 3 1 -6.296 18.1718 -7.67627 0 0 0 
137 2 1 7.32738 25.1834 14.7272 0 0 0 
133 1 1 0.624695 23.6016 13.3803 0 0 0 
136 1 1 3.72768 23.5849 15.6723 0 0 0 
128 2 1 -4.75257 26.9065 10.0545 0 0 0 
129 3 1 -3.86748 30.3622 10.8145 0 0 0 
135 3 1 2.00803 19.4046 18.2248 0 0 0 
134 2 1 -0.608013 21.8636 16.9169 0 0 0 
138 3 1 10.8452 24.7985 13.0004 0 0 0 
139 1 1 5.37309 22.9864 19.116 0 0 0 
147 3 1 -0.130515 22.8676 30.764 0 0 0 
146 2 1 2.76117 22.817 28.3876 0 0 0 
142 1 1 6.49514 22.4096 22.9383 0 0 0 
145 1 1 6.33238 22.2917 26.7003 0 0 0 
140 2 1 9.08194 24.889 19.3972 0 0 0 
143 2 1 10.3276 21.4399 23.8224 0 0 0 
144 3 1 13.1199 20.7679 25.8925 0 0 0 
141 3 1 11.3186 27.7024 17.9411 0 0 0 
159 3 1 10.4843 12.5926 42.5928 0 0 0 
154 1 1 11.2536 20.1682 36.4976 0 0 0 
158 2 1 11.0514 16.0087 41.9884 0 0 0 
157 1 1 12.9904 18.5279 39.596 0 0 0 
150 3 1 3.80422 26.8808 35.2038 0 0 0 
149 2 1 5.97349 24.7997 33.2951 0 0 0 
151 1 1 8.88537 21.2742 33.7574 0 0 0 
148 1 1 7.16775 22.1394 30.5081 0 0 0 
153 3 1 7.60043 24.61 40.2496 0 0 0 
152 2 1 8.12315 21.9091 37.7364 0 0 0 
155 2 1 15.1723 21.162 36.8345 0 0 0 
156 3 1 18.9787 20.8427 36.5028 0 0 0 
165 3 1 24.865 19.8703 44.8476 0 0 0 
167 2 1 17.9384 11.2777 48.5507 0 0 0 
168 3 1 15.4012 8.66175 49.3313 0 0 0 
170 2 1 22.4922 8.49215 50.1401 0 0 0 
171 3 1 20.5178 5.49962 50.1668 0 0 0 
177 3 1 20.5299 2.21963 56.4381 0 0 0 
162 3 1 12.124 16.0277 48.0668 0 0 0 
161 2 1 14.1722 14.7869 45.3542 0 0 0 
163 1 1 18.8016 15.9096 44.0093 0 0 0 
160 1 1 15.5351 17.0726 42.1312 0 0 0 
166 1 1 20.3665 13.9549 46.7064 0 0 0 
164 2 1 22.4828 17.0606 44.5249 0 0 0 
169 1 1 22.0656 12.6401 50.0711 0 0 0 
172 1 1 23.7628 10.916 53.0772 0 0 0 
176 2 1 23.0399 4.66326 55.3204 0 0 0 
175 1 1 25.0552 8.05672 55.3922 0 0 0 
181 1 1 30.6147 5.52327 59.7448 0 0 0 
178 1 1 27.4408 6.14067 57.6591 0 0 0 
179 2 1 26.2107 2.79637 59.5409 0 0 0 
180 3 1 25.2292 -0.756686 59.0924 0 0 0 
173 2 1 25.0014 12.71 55.9586 0 0 0 
174 3 1 26.0549 15.5297 58.422 0 0 0 
182 2 1 33.2576 7.89795 59.966 0 0 0 
183 3 1 35.991 9.44712 57.7305 0 0 0 
185 2 1 32.909 -0.350456 61.5937 0 0 0 
186 3 1 33.8152 -3.61551 60.3765 0 0 0 
184 1 1 33.1797 3.73189 61.8561 0 0 0 
188 2 1 36.1319 -0.609888 65.7728 0 0 0 
187 1 1 36.0724 3.18313 64.4097 0 0 0 
190 1 1 38.6274 3.35063 67.1134 0 0 0 
191 2 1 40.8719 6.36916 68.9122 0 0 0 
192 3 1 40.6921 7.96194 72.3813 0 0 0 
199 1 1 43.8616 -0.735705 76.6462 0 0 0 
202 1 1 46.0678 -1.0118 79.7557 0 0 0 
200 2 1 42.4701 -4.05729 78.3559 0 0 0 
189 3 1 37.8224 -4.08705 65.8352 0 0 0 
195 3 1 34.7629 -2.95113 71.5876 0 0 0 
194 2 1 38.1332 -1.23266 72.0255 0 0 0 
193 1 1 40.4708 1.42241 69.9965 0 0 0 
196 1 1 42.6994 0.794731 73.2234 0 0 0 
197 2 1 45.898 3.17384 74.1899 0 0 0 
203 2 1 49.8512 0.220068 79.3652 0 0 0 
204 3 1 52.2433 2.29901 77.8076 0 0 0 
198 3 1 46.6113 6.65187 75.2713 0 0 0 
207 3 1 45.4716 -5.03364 89.6532 0 0 0 
206 2 1 46.9007 -3.81429 86.6774 0 0 0 
201 3 1 41.8793 -7.55601 79.1742 0 0 0 
205 1 1 47.8169 -1.4114 83.4615 0 0 0 
211 1 1 51.9595 -1.21159 90.1834 0 0 0 
208 1 1 50.1643 -0.961297 86.6787 0 0 0 
209 2 1 52.9699 1.30437 86.032 0 0 0 
210 3 1 54.3202 4.32578 85.1013 0 0 0 
213 3 1 48.5569 -3.96174 96.0196 0 0 0 
212 2 1 51.0949 -3.12629 93.3942 0 0 0 
214 1 1 54.8588 -0.672957 92.4359 0 0 0 
215 2 1 54.8974 -1.33776 96.4162 0 0 0 
216 3 1 53.6894 -4.6575 98.069 0 0 0 
222 3 1 59.701 7.90803 100.607 0 0 0 
221 2 1 61.1808 5.20253 98.3244 0 0 0 
217 1 1 58.4224 0.656996 93.5567 0 0 0 
218 2 1 61.4695 1.04911 90.8742 0 0 0 
220 1 1 61.4456 2.35123 95.5664 0 0 0 
223 1 1 65.0522 3.06499 96.89 0 0 0 
219 3 1 62.911 2.79956 87.8359 0 0 0 
224 2 1 68.3138 1.07738 95.3629 0 0 0 
225 3 1 69.5249 -1.28766 92.6722 0 0 0 
228 3 1 66.5928 6.47716 106.173 0 0 0 
226 1 1 67.7471 4.69387 99.0534 0 0 0 
227 2 1 67.7543 5.53333 102.662 0 0 0 
ITEM: TIMESTEP
200000
ITEM: NUMBER OF ATOMS
228
ITEM: BOX BOUNDS pp pp pp
-190.612 190.612
-190.612 190.612
-190.612 190.612
ITEM: ATOMS id type mol x y z ix iy iz 
18 3 1 -45.511 -37.2444 -86.0753 0 0 0 
8 2 1 -32.1269 -33.4952 -84.9067 0 0 0 
6 3 1 -27.2515 -30.7343 -88.473 0 0 0 
5 2 1 -27.9386 -32.3641 -85.0399 0 0 0 
4 1 1 -26.0408 -34.4797 -82.1064 0 0 0 
24 3 1 -50.7191 -43.4768 -76.4631 0 0 0 
21 3 1 -50.0353 -40.9074 -81.3055 0 0 0 
19 1 1 -44.2391 -37.6103 -78.5605 0 0 0 
23 2 1 -49.305 -40.3066 -75.4113 0 0 0 
20 2 1 -47.9814 -38.4883 -79.7958 0 0 0 
22 1 1 -46.4266 -37.5776 -75.447 0 0 0 
17 2 1 -43.526 -36.6575 -83.189 0 0 0 
9 3 1 -34.2993 -34.4253 -87.9494 0 0 0 
14 2 1 -37.6972 -38.5783 -76.2368 0 0 0 
7 1 1 -29.7572 -35.27 -82.0011 0 0 0 
10 1 1 -33.2865 -36.7417 -80.7415 0 0 0 
13 1 1 -36.9018 -37.6585 -80.0389 0 0 0 
11 2 1 -33.6437 -38.9204 -77.4808 0 0 0 
16 1 1 -40.829 -37.5276 -80.2025 0 0 0 
15 3 1 -37.8259 -36.8452 -72.8211 0 0 0 
12 3 1 -33.6796 -39.6398 -73.7604 0 0 0 
3 3 1 -27.6617 -38.0326 -77.1197 0 0 0 
1 1 1 -22.2941 -34.6528 -81.1089 0 0 0 
2 2 1 -25.1443 -35.9035 -78.4802 0 0 0 
26 2 1 -50.2747 -39.6801 -70.0719 0 0 0 
27 3 1 -53.0504 -41.7061 -70.5191 0 0 0 
25 1 1 -47.6407 -37.0707 -71.7506 0 0 0 
33 3 1 -52.0379 -41.5795 -60.85 0 0 0 
32 2 1 -50.8626 -38.4582 -61.828 0 0 0 
31 1 1 -49.549 -36.2438 -64.2386 0 0 0 
34 1 1 -49.9594 -34.9197 -60.6763 0 0 0 
35 2 1 -48.2879 -31.7538 -60.3181 0 0 0 
28 1 1 -48.5788 -36.1537 -68.0211 0 0 0 
29 2 1 -47.824 -32.797 -66.7924 0 0 0 
30 3 1 -46.5039 -29.3532 -67.2257 0 0 0 
36 3 1 -46.6809 -28.3133 -61.2033 0 0 0 
39 3 1 -52.78 -36.4147 -51.4939 0 0 0 
37 1 1 -51.1764 -33.7365 -57.3092 0 0 0 
38 2 1 -53.7696 -36.0137 -55.0426 0 0 0 
42 3 1 -56.4969 -32.2521 -49.6543 0 0 0 
41 2 1 -54.7303 -30.9095 -52.3564 0 0 0 
40 1 1 -51.606 -30.8507 -54.8739 0 0 0 
43 1 1 -50.9324 -27.4606 -52.9675 0 0 0 
44 2 1 -48.1167 -25.3905 -53.102 0 0 0 
47 2 1 -55.8982 -24.0072 -49.0559 0 0 0 
46 1 1 -52.2166 -24.9315 -50.2274 0 0 0 
45 3 1 -45.4575 -23.1112 -54.1625 0 0 0 
48 3 1 -59.3079 -24.4344 -48.5622 0 0 0 
49 1 1 -51.431 -22.7586 -47.2694 0 0 0 
54 3 1 -57.6589 -16.8468 -42.9404 0 0 0 
52 1 1 -51.3374 -20.1688 -44.2923 0 0 0 
56 2 1 -47.5868 -16.2908 -39.3735 0 0 0 
53 2 1 -54.9416 -19.076 -42.8273 0 0 0 
55 1 1 -50.7577 -17.5718 -41.5077 0 0 0 
58 1 1 -52.2042 -14.5793 -39.4343 0 0 0 
51 3 1 -43.8348 -22.5409 -45.7239 0 0 0 
50 2 1 -47.4887 -22.5495 -46.0091 0 0 0 
60 3 1 -59.3534 -12.4524 -38.6569 0 0 0 
59 2 1 -55.9481 -12.9851 -38.7331 0 0 0 
62 2 1 -54.9549 -9.99625 -36.3102 0 0 0 
63 3 1 -58.1204 -9.03053 -34.8845 0 0 0 
57 3 1 -45.9682 -19.2194 -37.298 0 0 0 
61 1 1 -51.8448 -11.3989 -37.2157 0 0 0 
64 1 1 -50.5453 -8.66411 -35.0197 0 0 0 
66 3 1 -52.981 -2.06522 -32.2735 0 0 0 
65 2 1 -51.8606 -5.46827 -32.905 0 0 0 
70 1 1 -46.1853 -4.90034 -30.4039 0 0 0 
67 1 1 -47.7178 -7.41619 -32.9286 0 0 0 
68 2 1 -43.796 -8.71144 -32.5244 0 0 0 
69 3 1 -40.8267 -11.0954 -33.0987 0 0 0 
73 1 1 -44.0256 -2.69236 -28.1319 0 0 0 
71 2 1 -48.1831 -1.61893 -29.0729 0 0 0 
72 3 1 -48.5671 2.00407 -29.0471 0 0 0 
75 3 1 -46.2183 2.55008 -22.9923 0 0 0 
74 2 1 -44.894 -0.404462 -24.8942 0 0 0 
77 2 1 -37.2904 -1.92692 -26.7433 0 0 0 
78 3 1 -34.3477 -3.98742 -25.7762 0 0 0 
76 1 1 -41.0132 -0.775757 -26.6754 0 0 0 
82 1 1 -36.5084 3.93678 -23.0346 0 0 0 
79 1 1 -39.1656 2.23671 -25.0426 0 0 0 
80 2 1 -40.255 6.13845 -25.2559 0 0 0 
86 2 1 -33.1352 9.58029 -22.6255 0 0 0 
85 1 1 -34.3812 6.34133 -21.0408 0 0 0 
87 3 1 -33.8283 10.2573 -26.4575 0 0 0 
81 3 1 -43.0704 8.708 -25.021 0 0 0 
84 3 1 -33.4008 0.680407 -17.0284 0 0 0 
83 2 1 -34.5061 1.90899 -20.0315 0 0 0 
89 2 1 -32.5036 4.95616 -14.7342 0 0 0 
88 1 1 -32.8365 7.77917 -17.6994 0 0 0 
91 1 1 -30.4979 9.99095 -15.4731 0 0 0 
90 3 1 -33.62 2.20967 -12.4798 0 0 0 
92 2 1 -31.2644 13.9536 -14.4027 0 0 0 
93 3 1 -30.9143 17.097 -12.3003 0 0 0 
94 1 1 -27.4679 10.741 -13.2045 0 0 0 
96 3 1 -27.2638 16.9797 -8.90293 0 0 0 
95 2 1 -27.6969 13.8148 -10.4368 0 0 0 
97 1 1 -24.0778 10.1804 -11.302 0 0 0 
98 2 1 -22.2148 13.2351 -9.29074 0 0 0 
100 1 1 -21.0528 8.92036 -9.42882 0 0 0 
99 3 1 -19.6182 15.6045 -8.58389 0 0 0 
104 2 1 -16.512 12.8211 -5.43867 0 0 0 
101 2 1 -18.4763 5.79225 -9.34519 0 0 0 
102 3 1 -15.7529 4.10468 -8.00056 0 0 0 
103 1 1 -18.4234 9.38768 -6.73962 0 0 0 
106 1 1 -16.0469 8.22372 -3.99185 0 0 0 
107 2 1 -16.1616 4.49824 -2.8441 0 0 0 
108 3 1 -17.6674 1.21034 -2.65802 0 0 0 
110 2 1 -11.7333 4.16341 -1.50291 0 0 0 
111 3 1 -10.1428 1.86006 -4.1865 0 0 0 
105 3 1 -16.76 16.0917 -4.06978 0 0 0 
109 1 1 -13.7452 7.68718 -0.965313 0 0 0 
112 1 1 -11.1573 7.71397 1.87256 0 0 0 
114 3 1 -6.69288 1.99885 -0.0380458 0 0 0 
113 2 1 -8.16139 5.06126 1.34579 0 0 0 
115 1 1 -8.71488 8.38756 4.85263 0 0 0 
118 1 1 -6.69071 7.87252 8.00834 0 0 0 
119 2 1 -4.66838 4.29847 8.25893 0 0 0 
120 3 1 -6.40799 1.34316 7.17117 0 0 0 
116 2 1 -8.2155 11.648 6.9781 0 0 0 
117 3 1 -9.87463 14.8511 8.27081 0 0 0 
121 1 1 -5.32603 7.85337 11.7751 0 0 0 
122 2 1 -6.77542 11.0327 13.9247 0 0 0 
123 3 1 -5.69736 13.9169 15.5224 0 0 0 
124 1 1 -4.31741 7.25126 15.5413 0 0 0 
126 3 1 -6.49561 0.484953 17.035 0 0 0 
125 2 1 -4.75884 3.78058 17.7292 0 0 0 
127 1 1 -3.08503 8.06336 19.2435 0 0 0 
131 2 1 2.56572 6.85755 23.3506 0 0 0 
128 2 1 -4.2055 11.576 21.0124 0 0 0 
129 3 1 -5.78572 14.7242 20.8502 0 0 0 
132 3 1 4.68416 5.05814 25.9206 0 0 0 
130 1 1 -1.22249 8.44014 22.5348 0 0 0 
133 1 1 0.235407 9.69775 25.9161 0 0 0 
136 1 1 3.37608 10.8763 27.731 0 0 0 
137 2 1 3.7833 13.5323 30.6115 0 0 0 
134 2 1 -0.597918 11.1517 29.6209 0 0 0 
135 3 1 -1.20804 13.946 31.7102 0 0 0 
140 2 1 10.2708 9.40655 26.5199 0 0 0 
139 1 1 7.13347 11.125 28.6245 0 0 0 
142 1 1 10.4896 12.0704 30.3007 0 0 0 
141 3 1 13.0521 10.0382 24.1287 0 0 0 
146 2 1 16.4945 9.80122 28.2743 0 0 0 
147 3 1 17.9319 7.47876 26.0498 0 0 0 
158 2 1 30.1678 15.0698 34.9111 0 0 0 
159 3 1 31.9742 11.9729 35.5142 0 0 0 
162 3 1 37.8985 15.3589 35.8305 0 0 0 
138 3 1 3.67364 16.5268 32.7852 0 0 0 
143 2 1 11.3928 13.8622 33.6643 0 0 0 
144 3 1 10.6711 17.0407 35.6769 0 0 0 
145 1 1 14.3541 12.6179 30.2072 0 0 0 
148 1 1 17.8694 13.9578 30.917 0 0 0 
150 3 1 19.1563 17.51 37.1582 0 0 0 
149 2 1 17.4811 16.0982 34.4169 0 0 0 
151 1 1 21.1439 15.9709 31.5858 0 0 0 
154 1 1 24.7661 16.9339 31.7083 0 0 0 
152 2 1 20.5092 20.0644 32.1547 0 0 0 
156 3 1 27.2945 22.0255 26.5405 0 0 0 
155 2 1 25.8602 19.8773 29.144 0 0 0 
157 1 1 28.5324 17.6945 32.5323 0 0 0 
160 1 1 32.1048 19.2225 33.3193 0 0 0 
161 2 1 35.5863 16.9834 33.08 0 0 0 
163 1 1 35.1787 21.4783 34.4891 0 0 0 
164 2 1 34.7549 25.4851 34.2107 0 0 0 
166 1 1 38.4651 22.3769 36.1543 0 0 0 
165 3 1 34.7946 28.8599 32.8952 0 0 0 
169 1 1 41.6646 24.2654 37.3246 0 0 0 
170 2 1 42.1751 28.077 35.8956 0 0 0 
172 1 1 44.7996 24.7272 39.3846 0 0 0 
175 1 1 48.0368 26.2572 40.9496 0 0 0 
171 3 1 40.271 30.9906 35.4482 0 0 0 
177 3 1 48.3472 31.7276 36.1854 0 0 0 
176 2 1 49.4208 29.0197 38.3502 0 0 0 
179 2 1 52.1686 31.3136 41.9141 0 0 0 
180 3 1 51.5166 34.9316 42.5546 0 0 0 
153 3 1 18.5565 23.037 31.2065 0 0 0 
168 3 1 41.4202 16.5058 39.6114 0 0 0 
167 2 1 40.5959 19.2161 37.5064 0 0 0 
195 3 1 68.6305 14.6751 48.1029 0 0 0 
173 2 1 45.7415 21.7031 41.349 0 0 0 
174 3 1 46.8397 18.4493 41.2037 0 0 0 
187 1 1 61.0898 25.15 48.1594 0 0 0 
188 2 1 61.3463 21.6672 46.8522 0 0 0 
190 1 1 64.0237 23.1783 49.8218 0 0 0 
194 2 1 68.1665 17.9223 49.2308 0 0 0 
178 1 1 51.4499 27.2212 42.473 0 0 0 
182 2 1 57.1098 30.9875 44.1293 0 0 0 
183 3 1 58.0165 34.075 43.0343 0 0 0 
181 1 1 54.9065 27.5402 44.392 0 0 0 
184 1 1 58.1557 26.8208 46.4672 0 0 0 
185 2 1 58.7716 29.035 49.6891 0 0 0 
186 3 1 59.5162 32.2618 51.3967 0 0 0 
198 3 1 67.9897 13.2108 54.4475 0 0 0 
197 2 1 70.7675 15.8157 54.0381 0 0 0 
202 1 1 73.2397 16.8936 59.6416 0 0 0 
189 3 1 61.5946 19.6695 43.9091 0 0 0 
193 1 1 66.7185 21.0289 51.4026 0 0 0 
196 1 1 69.3012 19.6504 53.7899 0 0 0 
191 2 1 66.0301 25.8585 52.0816 0 0 0 
199 1 1 71.7157 19.1357 56.844 0 0 0 
200 2 1 74.072 21.7918 58.7619 0 0 0 
201 3 1 77.1882 24.085 59.0442 0 0 0 
192 3 1 66.9367 28.4061 54.3661 0 0 0 
213 3 1 66.8546 9.744 68.5829 0 0 0 
217 1 1 68.443 3.51983 70.6988 0 0 0 
214 1 1 71.0767 4.48142 68.2189 0 0 0 
205 1 1 73.7626 13.7126 61.7945 0 0 0 
208 1 1 73.7971 10.5003 64.0058 0 0 0 
211 1 1 72.7081 7.31561 66.0633 0 0 0 
212 2 1 70.054 8.55754 68.2136 0 0 0 
209 2 1 77.2188 9.27214 66.1016 0 0 0 
206 2 1 77.5718 12.5603 62.5885 0 0 0 
203 2 1 76.479 17.7697 61.7648 0 0 0 
210 3 1 79.7434 6.64636 65.1679 0 0 0 
204 3 1 78.5527 20.0594 63.1682 0 0 0 
207 3 1 81.0452 12.1989 63.9807 0 0 0 
228 3 1 63.1164 -5.14464 83.4253 0 0 0 
225 3 1 62.5854 -0.0457332 82.5715 0 0 0 
224 2 1 64.1633 -0.947436 79.3828 0 0 0 
226 1 1 63.9101 -4.81404 76.7083 0 0 0 
227 2 1 63.8185 -6.66389 80.4017 0 0 0 
223 1 1 64.9853 -1.29513 75.4424 0 0 0 
222 3 1 63.2212 5.4473 78.7226 0 0 0 
221 2 1 65.2797 3.95427 76.3911 0 0 0 
218 2 1 65.9007 6.23579 72.322 0 0 0 
219 3 1 64.8727 9.1857 73.7612 0 0 0 
220 1 1 66.3718 1.66569 73.2723 0 0 0 
215 2 1 71.3885 0.533748 67.4085 0 0 0 
216 3 1 70.2113 -3.01684 66.9149 0 0 0 
ITEM: TIMESTEP
300000
ITEM: NUMBER OF ATOMS
228
ITEM: BOX BOUNDS pp pp pp
-190.612 190.612
-190.612 190.612
-190.612 190.612
ITEM: ATOMS id type mol x y z ix iy iz 
1 1 1 -84.5297 -32.5867 -84.6756 0 0 0 
4 1 1 -81.9387 -33.7859 -82.1937 0 0 0 
8 2 1 -75.4263 -35.49 -82.4332 0 0 0 
7 1 1 -78.8449 -35.027 -80.1854 0 0 0 
6 3 1 -83.6841 -33.0472 -74.8286 0 0 0 
5 2 1 -83.0015 -33.7073 -78.3517 0 0 0 
2 2 1 -83.8812 -30.1332 -81.4858 0 0 0 
9 3 1 -71.9454 -34.7473 -84.0358 0 0 0 
12 3 1 -69.8425 -33.3808 -77.4919 0 0 0 
10 1 1 -76.6222 -36.031 -77.1661 0 0 0 
11 2 1 -72.6887 -35.6899 -77.911 0 0 0 
16 1 1 -72.4897 -37.1458 -70.9321 0 0 0 
13 1 1 -75.2402 -37.016 -73.6943 0 0 0 
14 2 1 -77.6095 -39.2004 -71.2111 0 0 0 
17 2 1 -69.4178 -35.0574 -72.3692 0 0 0 
18 3 1 -67.6683 -31.6778 -72.2664 0 0 0 
19 1 1 -69.6289 -36.1736 -68.6336 0 0 0 
23 2 1 -63.1944 -33.5254 -70.3397 0 0 0 
3 3 1 -81.8327 -28.1128 -78.8296 0 0 0 
15 3 1 -79.3704 -42.1314 -70.357 0 0 0 
20 2 1 -69.1628 -36.2748 -64.5823 0 0 0 
26 2 1 -65.6715 -33.6989 -61.3632 0 0 0 
22 1 1 -66.1437 -35.0469 -67.9475 0 0 0 
27 3 1 -67.5735 -34.3711 -58.2386 0 0 0 
25 1 1 -63.6793 -34.1212 -65.019 0 0 0 
28 1 1 -60.874 -33.0996 -62.4842 0 0 0 
24 3 1 -61.572 -32.6214 -73.7254 0 0 0 
29 2 1 -57.7819 -35.5236 -61.3648 0 0 0 
30 3 1 -54.8879 -37.02 -63.1488 0 0 0 
31 1 1 -58.7424 -31.3932 -59.7444 0 0 0 
21 3 1 -71.4073 -34.9646 -62.2589 0 0 0 
32 2 1 -55.6911 -33.6186 -57.9956 0 0 0 
33 3 1 -52.2671 -35.3596 -57.6319 0 0 0 
34 1 1 -57.4492 -29.2192 -56.708 0 0 0 
35 2 1 -57.368 -25.1996 -57.3403 0 0 0 
37 1 1 -57.0138 -28.0401 -53.1203 0 0 0 
36 3 1 -57.9753 -22.4237 -59.2073 0 0 0 
39 3 1 -57.4575 -20.3784 -54.2284 0 0 0 
38 2 1 -56.4704 -23.9465 -53.2885 0 0 0 
42 3 1 -51.4835 -30.5088 -45.5169 0 0 0 
41 2 1 -54.0399 -28.2628 -46.7915 0 0 0 
44 2 1 -60.0036 -21.3253 -47.8421 0 0 0 
40 1 1 -56.6874 -26.6655 -49.4921 0 0 0 
43 1 1 -57.5967 -24.4666 -46.56 0 0 0 
46 1 1 -57.6226 -21.9533 -43.6929 0 0 0 
45 3 1 -60.4933 -18.3523 -49.7246 0 0 0 
47 2 1 -59.729 -18.585 -44.258 0 0 0 
48 3 1 -62.8326 -16.8446 -44.0757 0 0 0 
57 3 1 -61.2473 -17.3725 -27.4553 0 0 0 
50 2 1 -58.9456 -16.933 -39.6674 0 0 0 
53 2 1 -53.3502 -20.3538 -35.2337 0 0 0 
49 1 1 -57.5347 -20.2366 -40.3152 0 0 0 
52 1 1 -56.7729 -20.1486 -36.4623 0 0 0 