ITEM: TIMESTEP
0
ITEM: NUMBER OF ATOMS
234
ITEM: BOX BOUNDS pp pp pp
-192.27 192.27
-192.27 192.27
-192.27 192.27
ITEM: ATOMS id type mol x y z ix iy iz 
1 1 1 -22.5965 -27.831 -135.976 0 0 0 
2 2 1 -25.9861 -27.8895 -134.104 0 0 0 
3 3 1 -29.4321 -28.5954 -132.862 0 0 0 
4 1 1 -22.011 -27.0959 -132.457 0 0 0 
5 2 1 -18.4836 -28.0351 -133.355 0 0 0 
6 3 1 -14.8963 -29.0059 -132.53 0 0 0 
7 1 1 -21.4255 -26.3607 -128.939 0 0 0 
8 2 1 -24.815 -26.4192 -127.067 0 0 0 
9 3 1 -28.2611 -27.1251 -125.825 0 0 0 
10 1 1 -20.84 -25.6256 -125.42 0 0 0 
13 1 1 -20.2544 -24.8904 -121.902 0 0 0 
11 2 1 -17.3125 -26.5647 -126.318 0 0 0 
12 3 1 -13.7253 -27.5356 -125.493 0 0 0 
14 2 1 -23.6439 -24.9489 -120.031 0 0 0 
15 3 1 -27.09 -25.6548 -118.788 0 0 0 
20 2 1 -22.4729 -23.4785 -112.994 0 0 0 
21 3 1 -25.9189 -24.1845 -111.752 0 0 0 
16 1 1 -19.6689 -24.1552 -118.384 0 0 0 
17 2 1 -16.1414 -25.0944 -119.281 0 0 0 
18 3 1 -12.5542 -26.0653 -118.456 0 0 0 
19 1 1 -19.0834 -23.4201 -114.865 0 0 0 
22 1 1 -18.4978 -22.6849 -111.347 0 0 0 
23 2 1 -14.9704 -23.6241 -112.245 0 0 0 
24 3 1 -11.3831 -24.595 -111.419 0 0 0 
26 2 1 -21.3018 -22.0082 -105.957 0 0 0 
27 3 1 -24.7479 -22.7141 -104.715 0 0 0 
25 1 1 -17.9123 -21.9497 -107.828 0 0 0 
28 1 1 -17.3268 -21.2146 -104.31 0 0 0 
29 2 1 -13.7993 -22.1538 -105.208 0 0 0 
30 3 1 -10.2121 -23.1246 -104.382 0 0 0 
33 3 1 -23.5768 -21.2438 -97.6781 0 0 0 
31 1 1 -16.7412 -20.4794 -100.792 0 0 0 
32 2 1 -20.1307 -20.5379 -98.9203 0 0 0 
35 2 1 -12.6282 -20.6834 -98.1709 0 0 0 
36 3 1 -9.04103 -21.6543 -97.3458 0 0 0 
34 1 1 -16.1557 -19.7443 -97.2732 0 0 0 
37 1 1 -15.5702 -19.0091 -93.7548 0 0 0 
38 2 1 -18.9597 -19.0676 -91.8835 0 0 0 
41 2 1 -11.4572 -19.2131 -91.1341 0 0 0 
39 3 1 -22.4058 -19.7735 -90.6412 0 0 0 
45 3 1 -21.2347 -18.3032 -83.6044 0 0 0 
40 1 1 -14.9846 -18.2739 -90.2364 0 0 0 
43 1 1 -14.3991 -17.5388 -86.718 0 0 0 
44 2 1 -17.7886 -17.5972 -84.8467 0 0 0 
46 1 1 -13.8136 -16.8036 -83.1996 0 0 0 
47 2 1 -10.2861 -17.7428 -84.0973 0 0 0 
42 3 1 -7.86996 -20.184 -90.309 0 0 0 
48 3 1 -6.6989 -18.7136 -83.2722 0 0 0 
49 1 1 -13.228 -16.0684 -79.6812 0 0 0 
50 2 1 -16.6176 -16.1269 -77.8099 0 0 0 
51 3 1 -20.0636 -16.8328 -76.5677 0 0 0 
52 1 1 -12.6425 -15.3333 -76.1628 0 0 0 
55 1 1 -12.057 -14.5981 -72.6444 0 0 0 
53 2 1 -9.11506 -16.2724 -77.0605 0 0 0 
54 3 1 -5.52784 -17.2433 -76.2353 0 0 0 
56 2 1 -15.4465 -14.6566 -70.7731 0 0 0 
57 3 1 -18.8926 -15.3625 -69.5309 0 0 0 
58 1 1 -11.4715 -13.8629 -69.126 0 0 0 
61 1 1 -10.8859 -13.1278 -65.6076 0 0 0 
62 2 1 -14.2754 -13.1863 -63.7363 0 0 0 
63 3 1 -17.7215 -13.8922 -62.4941 0 0 0 
64 1 1 -10.3004 -12.3926 -62.0892 0 0 0 
59 2 1 -7.944 -14.8021 -70.0237 0 0 0 
60 3 1 -4.35678 -15.773 -69.1985 0 0 0 
65 2 1 -6.77294 -13.3318 -62.9869 0 0 0 
66 3 1 -3.18572 -14.3027 -62.1617 0 0 0 
68 2 1 -13.1044 -11.7159 -56.6995 0 0 0 
69 3 1 -16.5505 -12.4218 -55.4573 0 0 0 
67 1 1 -9.71487 -11.6575 -58.5708 0 0 0 
70 1 1 -9.12934 -10.9223 -55.0524 0 0 0 
71 2 1 -5.60187 -11.8615 -55.9501 0 0 0 
72 3 1 -2.01466 -12.8323 -55.1249 0 0 0 
73 1 1 -8.54381 -10.1871 -51.534 0 0 0 
74 2 1 -11.9333 -10.2456 -49.6627 0 0 0 
75 3 1 -15.3794 -10.9515 -48.4205 0 0 0 
77 2 1 -4.43081 -10.3911 -48.9133 0 0 0 
78 3 1 -0.843596 -11.362 -48.0881 0 0 0 
80 2 1 -10.7623 -8.77528 -42.6259 0 0 0 
81 3 1 -14.2083 -9.4812 -41.3836 0 0 0 
76 1 1 -7.95828 -9.45196 -48.0156 0 0 0 
79 1 1 -7.37275 -8.7168 -44.4972 0 0 0 
82 1 1 -6.78722 -7.98163 -40.9788 0 0 0 
83 2 1 -3.25975 -8.92082 -41.8765 0 0 0 
84 3 1 0.327464 -9.89168 -41.0513 0 0 0 
87 3 1 -13.0373 -8.01088 -34.3468 0 0 0 
85 1 1 -6.20169 -7.24647 -37.4604 0 0 0 
86 2 1 -9.59121 -7.30495 -35.5891 0 0 0 
88 1 1 -5.61616 -6.51131 -33.942 0 0 0 
89 2 1 -2.08869 -7.45049 -34.8397 0 0 0 
91 1 1 -5.03063 -5.77614 -30.4236 0 0 0 
90 3 1 1.49853 -8.42135 -34.0145 0 0 0 
93 3 1 -11.8662 -6.54055 -27.31 0 0 0 
99 3 1 -10.6951 -5.07022 -20.2732 0 0 0 
92 2 1 -8.42014 -5.83463 -28.5523 0 0 0 
94 1 1 -4.4451 -5.04098 -26.9052 0 0 0 
95 2 1 -0.91763 -5.98017 -27.8029 0 0 0 
97 1 1 -3.85956 -4.30582 -23.3868 0 0 0 
98 2 1 -7.24908 -4.3643 -21.5155 0 0 0 
96 3 1 2.66959 -6.95103 -26.9778 0 0 0 
101 2 1 0.253431 -4.50984 -20.7661 0 0 0 
100 1 1 -3.27403 -3.57065 -19.8684 0 0 0 
103 1 1 -2.6885 -2.83549 -16.35 0 0 0 
104 2 1 -6.07802 -2.89397 -14.4787 0 0 0 
105 3 1 -9.52409 -3.5999 -13.2364 0 0 0 
106 1 1 -2.10297 -2.10033 -12.8316 0 0 0 
102 3 1 3.84065 -5.4807 -19.9409 0 0 0 
107 2 1 1.42449 -3.03951 -13.7293 0 0 0 
108 3 1 5.01171 -4.01037 -12.9041 0 0 0 
109 1 1 -1.51744 -1.36516 -9.31319 0 0 0 
110 2 1 -4.90696 -1.42365 -7.44193 0 0 0 
111 3 1 -8.35303 -2.12957 -6.19964 0 0 0 
112 1 1 -0.931911 -0.629998 -5.79479 0 0 0 
113 2 1 2.59555 -1.56918 -6.69249 0 0 0 
114 3 1 6.18277 -2.54004 -5.86735 0 0 0 
115 1 1 -0.34638 0.105164 -2.27638 0 0 0 
116 2 1 -3.7359 0.046681 -0.405124 0 0 0 
117 3 1 -7.18197 -0.659241 0.837158 0 0 0 
119 2 1 3.76661 -0.098857 0.344313 0 0 0 
120 3 1 7.35383 -1.06972 1.16945 0 0 0 
122 2 1 -2.56484 1.51701 6.63168 0 0 0 
123 3 1 -6.01091 0.811085 7.87396 0 0 0 
118 1 1 0.23915 0.840328 1.24202 0 0 0 
121 1 1 0.82468 1.57549 4.76042 0 0 0 
124 1 1 1.41021 2.31066 8.27882 0 0 0 
125 2 1 4.93768 1.37147 7.38111 0 0 0 
126 3 1 8.52489 0.400609 8.20626 0 0 0 
128 2 1 -1.39377 2.98733 13.6685 0 0 0 
129 3 1 -4.83985 2.28141 14.9108 0 0 0 
127 1 1 1.99574 3.04582 11.7972 0 0 0 
130 1 1 2.58127 3.78098 15.3156 0 0 0 
131 2 1 6.10874 2.8418 14.4179 0 0 0 
132 3 1 9.69595 1.87094 15.2431 0 0 0 
133 1 1 3.1668 4.51615 18.834 0 0 0 
134 2 1 -0.222713 4.45766 20.7053 0 0 0 
135 3 1 -3.66878 3.75174 21.9476 0 0 0 
141 3 1 -2.49772 5.22207 28.9844 0 0 0 
136 1 1 3.75233 5.25131 22.3524 0 0 0 
137 2 1 7.2798 4.31212 21.4547 0 0 0 
139 1 1 4.33786 5.98647 25.8708 0 0 0 
140 2 1 0.948347 5.92799 27.7421 0 0 0 
142 1 1 4.9234 6.72164 29.3892 0 0 0 
143 2 1 8.45086 5.78245 28.4915 0 0 0 
138 3 1 10.867 3.34126 22.2798 0 0 0 
144 3 1 12.0381 4.81159 29.3167 0 0 0 
147 3 1 -1.32666 6.69239 36.0212 0 0 0 
145 1 1 5.50893 7.4568 32.9076 0 0 0 
146 2 1 2.11941 7.39832 34.7789 0 0 0 
148 1 1 6.09446 8.19196 36.426 0 0 0 
149 2 1 9.62192 7.25278 35.5283 0 0 0 
151 1 1 6.67999 8.92713 39.9444 0 0 0 
150 3 1 13.2091 6.28192 36.3535 0 0 0 
153 3 1 -0.155599 8.16272 43.058 0 0 0 
152 2 1 3.29047 8.86864 41.8157 0 0 0 
154 1 1 7.26552 9.66229 43.4628 0 0 0 
159 3 1 1.01546 9.63305 50.0948 0 0 0 
155 2 1 10.793 8.72311 42.5651 0 0 0 
156 3 1 14.3802 7.75224 43.3903 0 0 0 
162 3 1 15.5513 9.22257 50.4271 0 0 0 
157 1 1 7.85105 10.3974 46.9812 0 0 0 
158 2 1 4.46153 10.339 48.8525 0 0 0 
160 1 1 8.43658 11.1326 50.4996 0 0 0 
161 2 1 11.964 10.1934 49.6019 0 0 0 
163 1 1 9.02211 11.8678 54.018 0 0 0 
164 2 1 5.63259 11.8093 55.8893 0 0 0 
165 3 1 2.18652 11.1034 57.1316 0 0 0 
166 1 1 9.60764 12.6029 57.5364 0 0 0 
167 2 1 13.1351 11.6638 56.6387 0 0 0 
168 3 1 16.7223 10.6929 57.4639 0 0 0 
170 2 1 6.80365 13.2796 62.9261 0 0 0 
171 3 1 3.35758 12.5737 64.1684 0 0 0 
176 2 1 7.97472 14.75 69.9629 0 0 0 
169 1 1 10.1932 13.3381 61.0548 0 0 0 
172 1 1 10.7787 14.0733 64.5732 0 0 0 
173 2 1 14.3062 13.1341 63.6755 0 0 0 
174 3 1 17.8934 12.1632 64.5007 0 0 0 
175 1 1 11.3642 14.8084 68.0916 0 0 0 
179 2 1 15.4772 14.6044 70.7123 0 0 0 
177 3 1 4.52865 14.044 71.2052 0 0 0 
182 2 1 9.14578 16.2203 76.9997 0 0 0 
183 3 1 5.69971 15.5144 78.242 0 0 0 
178 1 1 11.9498 15.5436 71.61 0 0 0 
180 3 1 19.0644 13.6335 71.5375 0 0 0 
181 1 1 12.5353 16.2788 75.1284 0 0 0 
184 1 1 13.1208 17.0139 78.6468 0 0 0 
185 2 1 16.6483 16.0747 77.7491 0 0 0 
186 3 1 20.2355 15.1039 78.5743 0 0 0 
189 3 1 6.87077 16.9847 85.2788 0 0 0 
187 1 1 13.7064 17.7491 82.1652 0 0 0 
188 2 1 10.3168 17.6906 84.0365 0 0 0 
190 1 1 14.2919 18.4842 85.6836 0 0 0 
191 2 1 17.8194 17.5451 84.7859 0 0 0 
193 1 1 14.8774 19.2194 89.202 0 0 0 
194 2 1 11.4879 19.1609 91.0733 0 0 0 
192 3 1 21.4066 16.5742 85.6111 0 0 0 
195 3 1 8.04183 18.455 92.3156 0 0 0 
201 3 1 9.21289 19.9253 99.3524 0 0 0 
196 1 1 15.4629 19.9546 92.7204 0 0 0 
197 2 1 18.9904 19.0154 91.8227 0 0 0 
198 3 1 22.5776 18.0445 92.6479 0 0 0 
204 3 1 23.7487 19.5149 99.6847 0 0 0 
199 1 1 16.0485 20.6897 96.2388 0 0 0 
200 2 1 12.659 20.6313 98.1101 0 0 0 
202 1 1 16.634 21.4249 99.7572 0 0 0 
203 2 1 20.1615 20.4857 98.8595 0 0 0 
205 1 1 17.2195 22.1601 103.276 0 0 0 
206 2 1 13.83 22.1016 105.147 0 0 0 
207 3 1 10.384 21.3957 106.389 0 0 0 
208 1 1 17.8051 22.8952 106.794 0 0 0 
211 1 1 18.3906 23.6304 110.312 0 0 0 
209 2 1 21.3325 21.956 105.896 0 0 0 
210 3 1 24.9198 20.9852 106.721 0 0 0 
212 2 1 15.0011 23.5719 112.184 0 0 0 
213 3 1 11.555 22.866 113.426 0 0 0 
214 1 1 18.9761 24.3656 113.831 0 0 0 
217 1 1 19.5617 25.1007 117.349 0 0 0 
218 2 1 16.1721 25.0422 119.22 0 0 0 
219 3 1 12.7261 24.3363 120.463 0 0 0 
220 1 1 20.1472 25.8359 120.868 0 0 0 
215 2 1 22.5036 23.4264 112.933 0 0 0 
216 3 1 26.0908 22.4555 113.758 0 0 0 
221 2 1 23.6747 24.8967 119.97 0 0 0 
222 3 1 27.2619 23.9258 120.795 0 0 0 
224 2 1 17.3432 26.5126 126.257 0 0 0 
225 3 1 13.8971 25.8066 127.499 0 0 0 
223 1 1 20.7327 26.571 124.386 0 0 0 
226 1 1 21.3182 27.3062 127.904 0 0 0 
227 2 1 24.8457 26.367 127.007 0 0 0 
228 3 1 28.4329 25.3962 127.832 0 0 0 
229 1 1 21.9038 28.0414 131.423 0 0 0 
230 2 1 18.5143 27.9829 133.294 0 0 0 
231 3 1 15.0682 27.277 134.536 0 0 0 
232 1 1 22.4893 28.7765 134.941 0 0 0 
233 2 1 26.0168 27.8374 134.043 0 0 0 
234 3 1 29.604 26.8665 134.869 0 0 0 
ITEM: TIMESTEP
100000
ITEM: NUMBER OF ATOMS
234
ITEM: BOX BOUNDS pp pp pp
-192.27 192.27
-192.27 192.27
-192.27 192.27
ITEM: ATOMS id type mol x y z ix iy iz 
3 3 1 -43.293 -54.8535 -103.485 0 0 0 
1 1 1 -44.3198 -52.6903 -96.6713 0 0 0 
2 2 1 -43.4061 -53.2086 -100.45 0 0 0 
5 2 1 -39.4634 -49.194 -99.967 0 0 0 
4 1 1 -42.2862 -49.3931 -97.0439 0 0 0 
7 1 1 -40.2797 -46.1389 -96.2542 0 0 0 
10 1 1 -39.4253 -42.4763 -95.3488 0 0 0 
6 3 1 -39.5624 -50.2609 -103.372 0 0 0 
8 2 1 -36.6435 -45.8761 -97.9179 0 0 0 
12 3 1 -40.2048 -36.0889 -99.149 0 0 0 
11 2 1 -41.1405 -39.191 -97.0004 0 0 0 
13 1 1 -38.0567 -39.2726 -93.8012 0 0 0 
9 3 1 -35.2034 -45.1862 -101.21 0 0 0 
15 3 1 -30.8962 -38.5991 -92.7673 0 0 0 
14 2 1 -34.3812 -38.582 -92.3962 0 0 0 
17 2 1 -38.6587 -32.1933 -94.6524 0 0 0 
18 3 1 -39.9541 -29.2269 -96.6602 0 0 0 
21 3 1 -31.2092 -33.7359 -85.9635 0 0 0 
16 1 1 -38.0523 -35.5328 -92.7804 0 0 0 
19 1 1 -37.4135 -33.0187 -89.7362 0 0 0 
20 2 1 -34.5836 -34.1862 -87.3452 0 0 0 
22 1 1 -37.3181 -31.0609 -86.4079 0 0 0 
24 3 1 -41.6594 -27.5014 -82.0004 0 0 0 
23 2 1 -40.1595 -29.072 -85.1066 0 0 0 
26 2 1 -32.0815 -29.4086 -81.81 0 0 0 
25 1 1 -35.884 -29.2255 -83.2915 0 0 0 
28 1 1 -35.4866 -26.9603 -80.2427 0 0 0 
31 1 1 -33.3112 -24.9118 -77.8496 0 0 0 
27 3 1 -28.5853 -28.7701 -80.3086 0 0 0 
33 3 1 -26.7554 -23.705 -81.4747 0 0 0 
32 2 1 -29.4493 -23.8877 -78.8811 0 0 0 
36 3 1 -25.0002 -22.5599 -76.5923 0 0 0 
35 2 1 -27.8011 -23.6264 -74.6746 0 0 0 
29 2 1 -38.0311 -25.3246 -77.5609 0 0 0 
30 3 1 -40.7548 -24.3895 -75.2089 0 0 0 
42 3 1 -37.1559 -21.5435 -64.4931 0 0 0 
41 2 1 -33.6205 -20.5842 -65.4298 0 0 0 
34 1 1 -31.5934 -23.4877 -74.7137 0 0 0 
37 1 1 -30.4346 -22.1475 -71.2037 0 0 0 
38 2 1 -26.5483 -21.6402 -70.7133 0 0 0 
40 1 1 -30.2065 -20.9793 -67.6264 0 0 0 
39 3 1 -22.7341 -21.2539 -71.4182 0 0 0 
44 2 1 -30.0273 -19.6244 -60.3618 0 0 0 
47 2 1 -24.7102 -19.4884 -58.7052 0 0 0 
45 3 1 -32.0275 -18.991 -57.253 0 0 0 
48 3 1 -25.4086 -21.3623 -55.3915 0 0 0 
43 1 1 -28.8294 -19.4623 -64.2133 0 0 0 
46 1 1 -26.2145 -17.599 -62.0739 0 0 0 
49 1 1 -23.7604 -15.1742 -60.2994 0 0 0 
50 2 1 -22.2413 -11.6805 -61.6138 0 0 0 
51 3 1 -22.0032 -8.21161 -62.6521 0 0 0 
52 1 1 -21.1106 -13.544 -57.8695 0 0 0 
53 2 1 -20.9673 -14.7215 -54.6192 0 0 0 
54 3 1 -22.9825 -12.7395 -52.395 0 0 0 
55 1 1 -17.9511 -12.0808 -56.0465 0 0 0 
58 1 1 -15.2349 -11.1288 -53.5942 0 0 0 
56 2 1 -15.4808 -9.11941 -57.6001 0 0 0 
57 3 1 -14.1906 -6.09206 -59.1031 0 0 0 
60 3 1 -14.138 -3.6982 -53.2359 0 0 0 
59 2 1 -14.2753 -7.23272 -53.1119 0 0 0 
61 1 1 -12.5583 -10.4815 -50.8868 0 0 0 
65 2 1 -8.15041 -14.9929 -48.5171 0 0 0 
66 3 1 -10.2974 -16.7274 -46.2547 0 0 0 
63 3 1 -14.5525 -6.34142 -47.3684 0 0 0 
62 2 1 -11.6007 -7.1237 -49.0626 0 0 0 
69 3 1 -10.3538 -11.714 -38.036 0 0 0 
68 2 1 -8.93962 -9.8952 -41.0684 0 0 0 
64 1 1 -10.114 -11.5087 -48.1423 0 0 0 
67 1 1 -8.09603 -11.1177 -44.8617 0 0 0 
70 1 1 -5.09607 -11.2796 -42.5361 0 0 0 
71 2 1 -1.67577 -9.21335 -43.4001 0 0 0 
72 3 1 0.813344 -6.46804 -44.0361 0 0 0 
80 2 1 -0.38442 -13.7529 -29.703 0 0 0 
81 3 1 -1.66657 -14.6763 -26.5531 0 0 0 
75 3 1 -4.65012 -13.9378 -32.6198 0 0 0 
74 2 1 -4.72975 -14.0578 -36.08 0 0 0 
73 1 1 -3.10517 -11.9038 -39.2805 0 0 0 
76 1 1 -0.281506 -11.8394 -36.6403 0 0 0 
79 1 1 0.809394 -11.9022 -32.9484 0 0 0 
78 3 1 6.74087 -11.7276 -36.2308 0 0 0 
77 2 1 3.37485 -11.7305 -36.9816 0 0 0 
86 2 1 6.52752 -10.9411 -23.9921 0 0 0 
87 3 1 9.05332 -13.4658 -22.7481 0 0 0 
89 2 1 5.1561 -10.7214 -19.8211 0 0 0 
90 3 1 6.29653 -13.8331 -18.0071 0 0 0 
84 3 1 10.0668 -7.96767 -31.6562 0 0 0 
82 1 1 3.04366 -10.4553 -29.9971 0 0 0 
85 1 1 3.48653 -9.52908 -26.3104 0 0 0 
88 1 1 2.94272 -8.81529 -22.6094 0 0 0 
83 2 1 6.99679 -9.72729 -30.1792 0 0 0 
96 3 1 8.54536 -2.36367 -13.7563 0 0 0 
95 2 1 5.85815 -4.39258 -14.1051 0 0 0 
94 1 1 2.66652 -6.19669 -15.4074 0 0 0 
97 1 1 1.68819 -5.6331 -11.7466 0 0 0 
91 1 1 2.12345 -7.34702 -19.0499 0 0 0 
92 2 1 -1.13453 -5.14311 -19.0302 0 0 0 
93 3 1 -3.71638 -2.31948 -18.8681 0 0 0 
99 3 1 5.73285 -0.130895 -7.99082 0 0 0 
98 2 1 3.06911 -2.41963 -9.58728 0 0 0 
105 3 1 3.72471 -4.74027 0.270506 0 0 0 
104 2 1 1.0081 -3.82572 -2.38253 0 0 0 
103 1 1 -1.61864 -5.11552 -5.21236 0 0 0 
101 2 1 -4.86844 -6.40057 -8.89762 0 0 0 
100 1 1 -0.731578 -5.86405 -8.79037 0 0 0 
102 3 1 -7.6703 -8.16773 -7.53819 0 0 0 
108 3 1 -8.05917 1.12393 -2.97677 0 0 0 
107 2 1 -5.31597 -1.00288 -1.85086 0 0 0 
113 2 1 -5.46385 0.0659298 6.41504 0 0 0 
114 3 1 -3.69133 2.81323 7.6845 0 0 0 
106 1 1 -3.72291 -4.6123 -1.99448 0 0 0 
109 1 1 -5.30379 -4.85414 1.69354 0 0 0 
112 1 1 -6.17358 -3.65416 5.28285 0 0 0 
110 2 1 -8.02252 -7.31053 3.48739 0 0 0 
111 3 1 -10.729 -9.39962 3.90084 0 0 0 
115 1 1 -6.64969 -2.97004 9.02324 0 0 0 
116 2 1 -8.56936 -5.17891 11.7344 0 0 0 
119 2 1 -2.61662 -2.27331 14.8338 0 0 0 
120 3 1 -2.02417 -3.61394 18.1125 0 0 0 
117 3 1 -10.6441 -6.06907 14.8224 0 0 0 
118 1 1 -5.28957 -0.850951 11.9944 0 0 0 
126 3 1 -2.71258 10.9881 12.9468 0 0 0 
124 1 1 -4.65724 5.24978 16.4851 0 0 0 
125 2 1 -5.07742 9.06521 14.9693 0 0 0 
127 1 1 -4.30144 7.76354 19.3306 0 0 0 
121 1 1 -4.502 1.82085 14.7021 0 0 0 
122 2 1 -1.52113 2.01996 17.5287 0 0 0 
132 3 1 -11.2518 13.1214 21.9995 0 0 0 
135 3 1 -9.5446 15.8742 26.7042 0 0 0 
131 2 1 -7.90047 12.724 21.4363 0 0 0 
130 1 1 -3.98242 11.1828 21.0252 0 0 0 
123 3 1 2.18265 2.7057 17.0469 0 0 0 
128 2 1 -3.47063 6.35785 23.1197 0 0 0 
129 3 1 -2.46769 3.45704 25.0468 0 0 0 
134 2 1 -6.26649 16.0559 24.7802 0 0 0 
133 1 1 -3.19126 14.3943 22.9032 0 0 0 
136 1 1 -1.57385 17.5571 24.43 0 0 0 
137 2 1 1.51028 19.6339 22.9545 0 0 0 
138 3 1 3.62425 21.6126 20.3244 0 0 0 
141 3 1 -8.65993 22.3163 26.4091 0 0 0 
140 2 1 -5.06145 22.7954 26.2706 0 0 0 
139 1 1 -1.58152 20.6257 26.8106 0 0 0 
142 1 1 -0.797986 23.2477 29.5846 0 0 0 
143 2 1 2.99495 24.7869 29.9077 0 0 0 
145 1 1 -1.07043 26.0106 32.4368 0 0 0 
144 3 1 6.46238 25.9591 28.8444 0 0 0 
149 2 1 2.15103 31.6847 35.2982 0 0 0 
150 3 1 5.13999 33.7078 34.4149 0 0 0 
146 2 1 -4.09151 25.2212 34.8726 0 0 0 
148 1 1 -0.83472 28.829 35.0542 0 0 0 
147 3 1 -7.82243 24.7808 35.8696 0 0 0 
151 1 1 -1.1785 30.8581 38.3565 0 0 0 
154 1 1 -1.89952 32.2974 41.9409 0 0 0 
152 2 1 1.10056 34.2374 38.9303 0 0 0 
153 3 1 4.48615 35.9458 39.1339 0 0 0 
155 2 1 -4.51582 31.2836 44.9726 0 0 0 
156 3 1 -6.24387 28.8075 46.9464 0 0 0 
159 3 1 -5.62314 34.6846 50.5773 0 0 0 
158 2 1 -3.00367 34.0655 48.364 0 0 0 
157 1 1 -1.52831 34.3397 45.2446 0 0 0 
162 3 1 1.18662 34.6707 54.8523 0 0 0 
161 2 1 0.107814 36.4218 51.5678 0 0 0 
160 1 1 0.119743 37.1687 47.4883 0 0 0 
163 1 1 2.66578 39.7619 48.8966 0 0 0 
164 2 1 3.53205 43.0406 47.3226 0 0 0 
165 3 1 2.48928 46.5053 46.1501 0 0 0 
166 1 1 5.28972 41.7279 50.9069 0 0 0 
167 2 1 6.13996 45.6756 51.6542 0 0 0 
207 3 1 34.6329 5.22245 57.841 0 0 0 
201 3 1 35.7979 15.3449 54.3834 0 0 0 
198 3 1 34.3121 21.7092 53.748 0 0 0 
197 2 1 33.4578 21.0272 57.4194 0 0 0 
172 1 1 11.3861 42.1212 55.3641 0 0 0 
175 1 1 14.2349 40.1661 57.2401 0 0 0 
178 1 1 17.0109 37.803 58.36 0 0 0 
169 1 1 8.18188 42.7949 53.2104 0 0 0 
168 3 1 5.29711 49.1675 50.8839 0 0 0 
170 2 1 8.54234 46.7164 54.305 0 0 0 
171 3 1 8.83178 50.5145 54.0008 0 0 0 
176 2 1 16.0705 41.1424 60.5185 0 0 0 
173 2 1 12.4964 44.9024 58.1063 0 0 0 
174 3 1 13.2671 48.1395 59.6431 0 0 0 
177 3 1 15.7154 39.3639 63.5157 0 0 0 
227 2 1 43.4579 -14.4816 66.5392 0 0 0 
228 3 1 43.4238 -15.3333 63.0193 0 0 0 
220 1 1 42.7063 -4.53912 69.2876 0 0 0 
222 3 1 37.6655 -10.3897 68.5072 0 0 0 
221 2 1 39.9856 -7.37534 68.0963 0 0 0 
206 2 1 34.288 7.56151 60.8916 0 0 0 
210 3 1 34.4977 2.31916 68.1668 0 0 0 
208 1 1 37.0953 7.63459 64.403 0 0 0 
211 1 1 39.9843 5.83808 66.1855 0 0 0 
209 2 1 36.1392 3.67536 64.9865 0 0 0 
196 1 1 31.0961 20.7049 60.6086 0 0 0 
199 1 1 33.2284 17.4385 61.1528 0 0 0 
200 2 1 35.4001 16.1928 57.9374 0 0 0 
194 2 1 31.8048 24.814 58.598 0 0 0 
195 3 1 34.2751 27.1493 56.7392 0 0 0 
205 1 1 35.7451 10.8073 62.9148 0 0 0 
202 1 1 35.2032 14.4909 62.4293 0 0 0 
203 2 1 38.4311 14.2971 64.9046 0 0 0 
193 1 1 28.5268 23.728 60.8588 0 0 0 
190 1 1 25.4023 25.8277 62.099 0 0 0 
191 2 1 25.2776 22.8615 64.8715 0 0 0 
188 2 1 21.6542 25.8661 65.4194 0 0 0 
187 1 1 22.7872 28.4892 62.489 0 0 0 
180 3 1 23.0723 37.1115 55.1641 0 0 0 
179 2 1 21.0418 38.1181 57.7263 0 0 0 
181 1 1 18.6831 34.8853 60.5104 0 0 0 
184 1 1 20.6006 31.7904 62.085 0 0 0 
182 2 1 16.6954 33.7011 63.7334 0 0 0 
183 3 1 15.9651 33.0521 67.2176 0 0 0 
185 2 1 18.9869 29.5671 65.0033 0 0 0 
186 3 1 16.9819 27.0344 66.2863 0 0 0 
232 1 1 45.5599 -19.5042 71.4893 0 0 0 
226 1 1 44.0352 -11.9735 69.8065 0 0 0 
229 1 1 45.0926 -15.5521 71.1485 0 0 0 
233 2 1 49.2532 -20.3249 73.0896 0 0 0 
230 2 1 46.8993 -15.9741 74.7498 0 0 0 
231 3 1 46.0576 -15.1104 78.4033 0 0 0 
218 2 1 45.3997 -1.44887 71.8754 0 0 0 
223 1 1 43.5259 -8.14301 70.2624 0 0 0 
217 1 1 42.5151 -0.600817 69.1734 0 0 0 
224 2 1 45.4968 -9.81368 73.2699 0 0 0 
219 3 1 45.8934 0.0893392 75.4849 0 0 0 
225 3 1 46.5035 -10.356 76.546 0 0 0 
213 3 1 46.8205 8.81344 67.1747 0 0 0 
212 2 1 43.5302 6.97761 67.3112 0 0 0 
215 2 1 44.9501 3.58272 70.3055 0 0 0 
214 1 1 41.6788 2.90556 68.0487 0 0 0 
216 3 1 48.6431 4.14717 71.0813 0 0 0 
204 3 1 40.9301 12.7528 67.5068 0 0 0 
189 3 1 21.0339 26.7442 69.0826 0 0 0 
192 3 1 27.4124 21.1074 67.4644 0 0 0 
234 3 1 51.6552 -21.8858 75.5164 0 0 0 
ITEM: TIMESTEP
200000
ITEM: NUMBER OF ATOMS
234
ITEM: BOX BOUNDS pp pp pp
-192.27 192.27
-192.27 192.27
-192.27 192.27
ITEM: ATOMS id type mol x y z ix iy iz 
6 3 1 -86.102 -69.5714 -62.9291 0 0 0 
1 1 1 -84.5251 -78.3438 -68.1715 0 0 0 
2 2 1 -80.4384 -78.1819 -68.7798 0 0 0 
3 3 1 -77.0735 -79.3484 -69.546 0 0 0 
8 2 1 -76.6562 -76.1593 -61.7773 0 0 0 
4 1 1 -82.8069 -75.9937 -65.8424 0 0 0 
5 2 1 -84.7883 -72.8289 -64.5565 0 0 0 
7 1 1 -79.9865 -74.7258 -63.6802 0 0 0 
12 3 1 -81.2816 -64.9934 -63.5827 0 0 0 
11 2 1 -80.1775 -68.3333 -61.9698 0 0 0 
10 1 1 -78.2902 -71.9772 -61.6376 0 0 0 
9 3 1 -75.3906 -78.8071 -59.7728 0 0 0 
15 3 1 -74.3027 -69.7999 -53.0551 0 0 0 
13 1 1 -76.6012 -68.9346 -60.0946 0 0 0 
14 2 1 -74.86 -69.8966 -56.5992 0 0 0 
16 1 1 -74.8752 -65.4847 -59.7752 0 0 0 
17 2 1 -76.3467 -62.666 -62.0779 0 0 0 
19 1 1 -72.9356 -62.332 -58.8144 0 0 0 
20 2 1 -72.1679 -59.0374 -61.0687 0 0 0 
22 1 1 -70.6195 -59.6613 -57.0718 0 0 0 
18 3 1 -79.099 -60.4016 -63.4059 0 0 0 
21 3 1 -72.7965 -56.7878 -64.0224 0 0 0 
28 1 1 -65.4374 -55.2039 -53.7484 0 0 0 
25 1 1 -68.0445 -57.8318 -54.85 0 0 0 
23 2 1 -70.1495 -55.8535 -58.4817 0 0 0 
26 2 1 -66.0992 -59.1602 -51.4983 0 0 0 
27 3 1 -65.2193 -58.4567 -47.8166 0 0 0 
24 3 1 -69.9351 -52.8549 -60.5236 0 0 0 
32 2 1 -61.7333 -53.4348 -47.7147 0 0 0 
31 1 1 -62.658 -53.2111 -51.7326 0 0 0 
33 3 1 -61.8879 -53.9824 -44.1648 0 0 0 
30 3 1 -65.2946 -48.7055 -56.5416 0 0 0 
29 2 1 -64.5951 -52.256 -55.3788 0 0 0 
35 2 1 -57.1034 -49.1765 -52.7355 0 0 0 
37 1 1 -58.1357 -47.5447 -48.8809 0 0 0 
34 1 1 -60.1934 -50.3123 -50.7475 0 0 0 
36 3 1 -54.8042 -48.0307 -55.6333 0 0 0 
42 3 1 -50.7738 -46.2938 -54.3318 0 0 0 
41 2 1 -52.0543 -46.0754 -50.9387 0 0 0 
39 3 1 -59.8697 -43.1874 -42.5268 0 0 0 
38 2 1 -59.4249 -44.914 -45.9162 0 0 0 
40 1 1 -54.929 -45.8421 -47.9503 0 0 0 
45 3 1 -46.3964 -44.6754 -51.1683 0 0 0 
47 2 1 -46.4468 -40.58 -46.6417 0 0 0 
43 1 1 -52.1096 -43.4148 -46.8912 0 0 0 
44 2 1 -48.6598 -43.0499 -49.0611 0 0 0 
46 1 1 -49.7603 -40.9635 -45.0598 0 0 0 
51 3 1 -42.1962 -33.764 -42.3509 0 0 0 
50 2 1 -44.7672 -36.4481 -42.7291 0 0 0 
49 1 1 -48.262 -38.5762 -42.4219 0 0 0 
48 3 1 -43.0665 -41.221 -46.8876 0 0 0 
52 1 1 -48.3175 -36.6977 -39.0575 0 0 0 
55 1 1 -46.8724 -34.1865 -36.3557 0 0 0 
56 2 1 -44.404 -31.6191 -37.4141 0 0 0 
58 1 1 -46.4466 -32.6983 -32.8818 0 0 0 
53 2 1 -50.991 -35.6893 -36.1744 0 0 0 
54 3 1 -54.0597 -34.0083 -35.4013 0 0 0 
59 2 1 -47.9214 -34.5894 -29.5604 0 0 0 
60 3 1 -50.0829 -34.8761 -26.5461 0 0 0 
57 3 1 -43.6173 -28.514 -39.4038 0 0 0 
61 1 1 -45.3703 -30.5111 -29.8986 0 0 0 
62 2 1 -45.1428 -32.3644 -26.2585 0 0 0 
63 3 1 -45.812 -33.343 -22.9615 0 0 0 
65 2 1 -45.1652 -27.3907 -23.987 0 0 0 
64 1 1 -43.6032 -27.6997 -27.6564 0 0 0 
66 3 1 -45.5257 -28.5935 -20.6357 0 0 0 
81 3 1 -27.0459 -20.0996 -30.088 0 0 0 
67 1 1 -41.4563 -24.9464 -26.1924 0 0 0 
68 2 1 -39.5152 -22.2641 -28.3343 0 0 0 
69 3 1 -37.156 -19.6333 -28.2625 0 0 0 
72 3 1 -37.8228 -24.234 -16.8249 0 0 0 
71 2 1 -39.8325 -22.8243 -19.6744 0 0 0 
70 1 1 -39.3312 -22.6209 -23.7662 0 0 0 
73 1 1 -36.4871 -20.3276 -22.6546 0 0 0 
74 2 1 -37.6825 -18.0143 -19.6243 0 0 0 
76 1 1 -33.2703 -18.4499 -22.5229 0 0 0 
77 2 1 -31.1897 -16.1782 -19.9717 0 0 0 
75 3 1 -39.667 -15.8661 -17.0532 0 0 0 
78 3 1 -30.5835 -13.157 -18.434 0 0 0 
79 1 1 -30.0479 -17.2554 -24.4717 0 0 0 
85 1 1 -24.4817 -11.9572 -25.9535 0 0 0 
80 2 1 -28.2523 -18.2895 -27.5004 0 0 0 
82 1 1 -27.3434 -14.4536 -24.7897 0 0 0 
83 2 1 -26.1717 -11.9659 -21.7996 0 0 0 
87 3 1 -24.057 -10.6842 -33.3824 0 0 0 
86 2 1 -23.1469 -10.8008 -29.6036 0 0 0 
88 1 1 -21.8481 -9.45496 -25.0958 0 0 0 
89 2 1 -18.9669 -7.95311 -27.4434 0 0 0 
90 3 1 -18.5305 -6.3052 -30.4136 0 0 0 
93 3 1 -19.3664 -2.09171 -18.9768 0 0 0 
92 2 1 -20.5626 -5.271 -19.8532 0 0 0 
91 1 1 -19.3637 -7.1036 -23.1873 0 0 0 
95 2 1 -13.7453 -4.71954 -25.4243 0 0 0 
94 1 1 -16.479 -4.7018 -22.3756 0 0 0 
102 3 1 -8.27328 -5.64678 -15.2956 0 0 0 
101 2 1 -8.59325 -3.12906 -17.7275 0 0 0 
105 3 1 -1.74415 -1.65083 -16.3747 0 0 0 
96 3 1 -12.374 -5.73653 -28.6113 0 0 0 
84 3 1 -23.7795 -10.8142 -19.4559 0 0 0 
97 1 1 -14.0537 -1.9675 -20.9634 0 0 0 
98 2 1 -14.5732 1.98835 -20.6959 0 0 0 
99 3 1 -13.6191 5.68739 -21.4684 0 0 0 
100 1 1 -10.8928 -0.594729 -19.2289 0 0 0 
108 3 1 -10.1314 11.078 -14.7422 0 0 0 
103 1 1 -8.38818 1.90234 -17.737 0 0 0 
110 2 1 0.210589 6.66181 -14.7598 0 0 0 
104 2 1 -4.94765 0.301707 -16.1718 0 0 0 
106 1 1 -6.16207 4.86565 -16.3174 0 0 0 
107 2 1 -8.1991 7.76124 -14.2226 0 0 0 
109 1 1 -3.35097 7.02888 -14.9205 0 0 0 
114 3 1 3.27403 14.9114 -12.595 0 0 0 
111 3 1 3.04464 6.38143 -16.7685 0 0 0 
112 1 1 -2.53715 10.4573 -13.0709 0 0 0 
113 2 1 1.06542 12.2581 -12.625 0 0 0 
117 3 1 -10.2847 14.0978 -10.6827 0 0 0 
118 1 1 -2.00188 16.5304 -8.30553 0 0 0 
119 2 1 0.349601 17.0113 -5.07941 0 0 0 
116 2 1 -6.53281 14.7363 -9.81651 0 0 0 
115 1 1 -2.81102 13.6207 -10.7778 0 0 0 
120 3 1 -0.550145 14.7194 -2.10392 0 0 0 
122 2 1 -5.31809 22.319 -8.37598 0 0 0 
123 3 1 -5.60462 24.0618 -11.8526 0 0 0 
121 1 1 -2.80995 19.8377 -6.32815 0 0 0 
124 1 1 -3.11283 22.4243 -3.5675 0 0 0 
126 3 1 -7.49666 28.7572 -2.84253 0 0 0 
125 2 1 -5.82728 25.2367 -2.84296 0 0 0 
131 2 1 -2.7653 27.1396 5.65949 0 0 0 
127 1 1 -1.64278 24.1912 -0.416484 0 0 0 
129 3 1 5.82592 24.0586 -0.39001 0 0 0 
128 2 1 2.1751 24.6353 0.055633 0 0 0 
130 1 1 -1.0472 26.2479 2.70492 0 0 0 
133 1 1 1.66822 28.2019 4.66302 0 0 0 
134 2 1 5.40773 26.773 4.65954 0 0 0 
135 3 1 7.75697 24.1173 5.42076 0 0 0 
132 3 1 -4.71836 26.6021 8.88289 0 0 0 
136 1 1 3.49012 30.6106 7.12533 0 0 0 
139 1 1 6.15733 31.6231 9.79631 0 0 0 
138 3 1 3.58689 38.2651 8.83443 0 0 0 
137 2 1 3.25855 34.6165 7.66743 0 0 0 
144 3 1 10.7953 27.8001 18.1573 0 0 0 
140 2 1 6.13705 35.057 11.9271 0 0 0 
142 1 1 9.06777 31.7619 12.372 0 0 0 
143 2 1 10.9491 29.1966 14.9135 0 0 0 
145 1 1 11.9024 33.1165 14.5817 0 0 0 
148 1 1 14.7666 32.8007 16.9932 0 0 0 
151 1 1 17.5152 31.2049 19.1438 0 0 0 
152 2 1 17.6806 27.5434 20.9805 0 0 0 
149 2 1 16.6068 35.5351 19.0314 0 0 0 
154 1 1 20.6626 30.9964 21.3069 0 0 0 
155 2 1 21.3735 33.8783 24.1896 0 0 0 
156 3 1 20.8822 37.3911 25.3608 0 0 0 
161 2 1 29.2894 33.2964 25.629 0 0 0 
162 3 1 32.1771 35.6573 25.2516 0 0 0 
141 3 1 4.19763 37.4904 14.1447 0 0 0 
146 2 1 13.3177 37.0167 14.7247 0 0 0 
147 3 1 12.8625 40.3362 13.4001 0 0 0 
150 3 1 19.9743 36.8011 20.0559 0 0 0 
165 3 1 28.7124 22.2929 29.7064 0 0 0 
164 2 1 29.8796 25.7541 29.57 0 0 0 
168 3 1 38.9222 24.6016 31.4224 0 0 0 
167 2 1 35.9339 26.4495 31.2633 0 0 0 
153 3 1 18.8658 25.0095 23.1573 0 0 0 
158 2 1 24.5772 26.2476 23.5945 0 0 0 
157 1 1 24.0242 30.0622 22.9427 0 0 0 
160 1 1 27.4051 29.7582 24.9105 0 0 0 
159 3 1 24.8802 22.5534 22.5942 0 0 0 
163 1 1 30.3002 29.1809 27.3431 0 0 0 
166 1 1 34.0097 29.1359 28.7852 0 0 0 
175 1 1 43.3589 29.7952 34.7448 0 0 0 
177 3 1 47.0609 23.1321 35.6636 0 0 0 
176 2 1 44.3229 25.8957 35.5204 0 0 0 
170 2 1 40.0942 33.3546 27.9743 0 0 0 
171 3 1 42.4958 33.2168 25.3221 0 0 0 
169 1 1 37.4889 30.5579 29.6042 0 0 0 
172 1 1 40.6028 30.4698 31.9731 0 0 0 
173 2 1 42.8721 33.815 31.2533 0 0 0 
180 3 1 52.642 25.5536 37.3243 0 0 0 
182 2 1 45.4829 32.197 43.8357 0 0 0 
178 1 1 45.7576 29.7882 37.8244 0 0 0 
179 2 1 49.2546 27.5445 37.3312 0 0 0 
181 1 1 47.883 30.4537 41.0588 0 0 0 
184 1 1 50.0483 31.3391 44.078 0 0 0 
187 1 1 53.2735 30.8564 46.3779 0 0 0 
174 3 1 45.484 35.6173 29.5183 0 0 0 
192 3 1 60.8364 24.1135 45.2678 0 0 0 
191 2 1 59.7548 27.6562 46.6121 0 0 0 
183 3 1 43.8171 33.2088 47.0711 0 0 0 
186 3 1 49.7749 37.4981 47.6458 0 0 0 
185 2 1 50.0373 34.0458 47.0767 0 0 0 
188 2 1 53.2647 33.0481 49.9318 0 0 0 
189 3 1 52.1761 35.7386 52.5007 0 0 0 
201 3 1 72.0041 32.0036 54.3925 0 0 0 
231 3 1 99.0493 31.37 76.2039 0 0 0 
190 1 1 56.5565 29.7851 47.97 0 0 0 
194 2 1 57.0246 32.9322 53.8956 0 0 0 
193 1 1 58.8076 30.3725 51.1582 0 0 0 
196 1 1 61.4159 31.1125 53.9502 0 0 0 
198 3 1 58.3422 31.8473 61.0411 0 0 0 
195 3 1 54.6654 33.2895 56.3614 0 0 0 
197 2 1 60.5767 31.6041 57.8828 0 0 0 
199 1 1 64.7957 31.7234 55.7694 0 0 0 
200 2 1 68.4034 32.7707 54.9439 0 0 0 
202 1 1 67.0348 32.2124 58.9121 0 0 0 
206 2 1 72.9727 34.9328 58.3419 0 0 0 
207 3 1 76.4534 34.8195 57.1088 0 0 0 
225 3 1 92.0836 31.1056 74.6522 0 0 0 
232 1 1 99.68 39.5875 75.4647 0 0 0 
230 2 1 97.9621 35.1087 76.059 0 0 0 
204 3 1 65.2149 27.555 64.7516 0 0 0 
209 2 1 70.9747 37.5031 66.5125 0 0 0 
208 1 1 72.5067 35.3686 63.4231 0 0 0 
203 2 1 66.6505 30.0426 62.3034 0 0 0 
205 1 1 70.0109 33.9083 60.9259 0 0 0 
210 3 1 69.0635 35.8846 69.4976 0 0 0 
212 2 1 74.8985 38.192 68.9494 0 0 0 
211 1 1 75.4775 36.9227 65.4338 0 0 0 
214 1 1 78.9203 37.826 66.6941 0 0 0 
224 2 1 91.1294 34.1912 72.4352 0 0 0 
223 1 1 89.4836 37.5141 70.7404 0 0 0 
217 1 1 82.5718 38.5358 67.4222 0 0 0 
220 1 1 86.1856 38.5831 68.9105 0 0 0 
221 2 1 87.5156 42.376 69.5751 0 0 0 
222 3 1 89.3338 45.1704 67.5866 0 0 0 
233 2 1 102.171 42.7575 74.6364 0 0 0 
227 2 1 94.3177 42.2949 72.133 0 0 0 
228 3 1 95.5687 44.883 74.1115 0 0 0 
226 1 1 92.8761 38.5225 72.2534 0 0 0 
229 1 1 96.3137 38.3712 74.0642 0 0 0 
234 3 1 104.709 43.6936 71.875 0 0 0 
215 2 1 79.5049 40.4567 69.9265 0 0 0 
213 3 1 74.6927 37.3564 72.3226 0 0 0 
216 3 1 78.7187 43.6378 71.9244 0 0 0 
219 3 1 83.339 46.2067 68.6363 0 0 0 
218 2 1 82.9574 42.2649 68.8199 0 0 0 
ITEM: TIMESTEP
300000
ITEM: NUMBER OF ATOMS
234
ITEM: BOX BOUNDS pp pp pp
-192.27 192.27
-192.27 192.27
-192.27 192.27
ITEM: ATOMS id type mol x y z ix iy iz 
36 3 1 -78.7618 -43.686 -43.8639 0 0 0 
42 3 1 -76.5797 -37.6877 -41.1336 0 0 0 
41 2 1 -75.1219 -40.1911 -38.7701 0 0 0 
44 2 1 -70.7664 -38.3724 -37.8096 0 0 0 
45 3 1 -71.4296 -35.0719 -39.4468 0 0 0 
21 3 1 -93.3092 -64.4952 -37.9297 0 0 0 
27 3 1 -85.5318 -57.3708 -44.1023 0 0 0 
26 2 1 -85.0982 -58.2801 -40.5619 0 0 0 
20 2 1 -90.2735 -64.2012 -35.5992 0 0 0 
22 1 1 -86.5999 -60.3425 -33.966 0 0 0 
25 1 1 -85.4597 -58.131 -36.8842 0 0 0 
28 1 1 -84.0733 -54.6058 -37.7739 0 0 0 
30 3 1 -83.1605 -52.4035 -44.8819 0 0 0 
29 2 1 -83.0528 -53.6982 -41.51 0 0 0 
31 1 1 -82.4491 -51.1282 -37.369 0 0 0 
35 2 1 -79.8078 -45.0839 -40.4041 0 0 0 
34 1 1 -80.3361 -47.8307 -37.5396 0 0 0 
38 2 1 -76.681 -45.9998 -31.7737 0 0 0 
37 1 1 -77.9127 -45.4129 -35.6755 0 0 0 
40 1 1 -75.2261 -42.7137 -35.5841 0 0 0 
32 2 1 -82.1504 -49.6745 -33.5258 0 0 0 
47 2 1 -67.329 -35.6939 -34.8514 0 0 0 
43 1 1 -72.5137 -39.9821 -34.8077 0 0 0 
46 1 1 -70.1457 -37.7209 -32.6941 0 0 0 
49 1 1 -68.3734 -35.2678 -30.3013 0 0 0 
52 1 1 -65.6992 -33.2536 -28.4035 0 0 0 
53 2 1 -61.6644 -33.4117 -28.6701 0 0 0 
48 3 1 -65.9188 -32.8233 -36.0403 0 0 0 
51 3 1 -69.9819 -31.1176 -24.9758 0 0 0 
50 2 1 -70.12 -33.089 -27.8805 0 0 0 
8 2 1 -93.997 -70.4047 -20.46 0 0 0 
9 3 1 -95.0102 -72.8054 -23.2484 0 0 0 
15 3 1 -97.1451 -69.5877 -27.6605 0 0 0 
14 2 1 -93.4485 -68.6577 -27.4272 0 0 0 