ITEM: TIMESTEP
0
ITEM: NUMBER OF ATOMS
246
ITEM: BOX BOUNDS pp pp pp
-195.502 195.502
-195.502 195.502
-195.502 195.502
ITEM: ATOMS id type mol x y z ix iy iz 
2 2 1 -27.1571 -29.3599 -141.141 0 0 0 
3 3 1 -30.6032 -30.0658 -139.899 0 0 0 
1 1 1 -23.7676 -29.3014 -143.012 0 0 0 
4 1 1 -23.1821 -28.5662 -139.494 0 0 0 
5 2 1 -19.6546 -29.5054 -140.392 0 0 0 
6 3 1 -16.0674 -30.4763 -139.566 0 0 0 
7 1 1 -22.5965 -27.831 -135.976 0 0 0 
8 2 1 -25.9861 -27.8895 -134.104 0 0 0 
9 3 1 -29.4321 -28.5954 -132.862 0 0 0 
15 3 1 -28.2611 -27.1251 -125.825 0 0 0 
10 1 1 -22.011 -27.0959 -132.457 0 0 0 
11 2 1 -18.4836 -28.0351 -133.355 0 0 0 
13 1 1 -21.4255 -26.3607 -128.939 0 0 0 
14 2 1 -24.815 -26.4192 -127.067 0 0 0 
16 1 1 -20.84 -25.6256 -125.42 0 0 0 
17 2 1 -17.3125 -26.5647 -126.318 0 0 0 
12 3 1 -14.8963 -29.0059 -132.53 0 0 0 
18 3 1 -13.7253 -27.5356 -125.493 0 0 0 
21 3 1 -27.09 -25.6548 -118.788 0 0 0 
23 2 1 -16.1414 -25.0944 -119.281 0 0 0 
24 3 1 -12.5542 -26.0653 -118.456 0 0 0 
19 1 1 -20.2544 -24.8904 -121.902 0 0 0 
20 2 1 -23.6439 -24.9489 -120.031 0 0 0 
22 1 1 -19.6689 -24.1552 -118.384 0 0 0 
27 3 1 -25.9189 -24.1845 -111.752 0 0 0 
25 1 1 -19.0834 -23.4201 -114.865 0 0 0 
26 2 1 -22.4729 -23.4785 -112.994 0 0 0 
28 1 1 -18.4978 -22.6849 -111.347 0 0 0 
31 1 1 -17.9123 -21.9497 -107.828 0 0 0 
32 2 1 -21.3018 -22.0082 -105.957 0 0 0 
29 2 1 -14.9704 -23.6241 -112.245 0 0 0 
30 3 1 -11.3831 -24.595 -111.419 0 0 0 
33 3 1 -24.7479 -22.7141 -104.715 0 0 0 
34 1 1 -17.3268 -21.2146 -104.31 0 0 0 
37 1 1 -16.7412 -20.4794 -100.792 0 0 0 
38 2 1 -20.1307 -20.5379 -98.9203 0 0 0 
39 3 1 -23.5768 -21.2438 -97.6781 0 0 0 
40 1 1 -16.1557 -19.7443 -97.2732 0 0 0 
35 2 1 -13.7993 -22.1538 -105.208 0 0 0 
36 3 1 -10.2121 -23.1246 -104.382 0 0 0 
41 2 1 -12.6282 -20.6834 -98.1709 0 0 0 
42 3 1 -9.04103 -21.6543 -97.3458 0 0 0 
43 1 1 -15.5702 -19.0091 -93.7548 0 0 0 
44 2 1 -18.9597 -19.0676 -91.8835 0 0 0 
45 3 1 -22.4058 -19.7735 -90.6412 0 0 0 
46 1 1 -14.9846 -18.2739 -90.2364 0 0 0 
47 2 1 -11.4572 -19.2131 -91.1341 0 0 0 
48 3 1 -7.86996 -20.184 -90.309 0 0 0 
49 1 1 -14.3991 -17.5388 -86.718 0 0 0 
50 2 1 -17.7886 -17.5972 -84.8467 0 0 0 
51 3 1 -21.2347 -18.3032 -83.6044 0 0 0 
56 2 1 -16.6176 -16.1269 -77.8099 0 0 0 
57 3 1 -20.0636 -16.8328 -76.5677 0 0 0 
52 1 1 -13.8136 -16.8036 -83.1996 0 0 0 
53 2 1 -10.2861 -17.7428 -84.0973 0 0 0 
54 3 1 -6.6989 -18.7136 -83.2722 0 0 0 
55 1 1 -13.228 -16.0684 -79.6812 0 0 0 
58 1 1 -12.6425 -15.3333 -76.1628 0 0 0 
59 2 1 -9.11506 -16.2724 -77.0605 0 0 0 
60 3 1 -5.52784 -17.2433 -76.2353 0 0 0 
63 3 1 -18.8926 -15.3625 -69.5309 0 0 0 
66 3 1 -4.35678 -15.773 -69.1985 0 0 0 
62 2 1 -15.4465 -14.6566 -70.7731 0 0 0 
61 1 1 -12.057 -14.5981 -72.6444 0 0 0 
64 1 1 -11.4715 -13.8629 -69.126 0 0 0 
65 2 1 -7.944 -14.8021 -70.0237 0 0 0 
67 1 1 -10.8859 -13.1278 -65.6076 0 0 0 
69 3 1 -17.7215 -13.8922 -62.4941 0 0 0 
75 3 1 -16.5505 -12.4218 -55.4573 0 0 0 
68 2 1 -14.2754 -13.1863 -63.7363 0 0 0 
70 1 1 -10.3004 -12.3926 -62.0892 0 0 0 
71 2 1 -6.77294 -13.3318 -62.9869 0 0 0 
73 1 1 -9.71487 -11.6575 -58.5708 0 0 0 
74 2 1 -13.1044 -11.7159 -56.6995 0 0 0 
77 2 1 -5.60187 -11.8615 -55.9501 0 0 0 
72 3 1 -3.18572 -14.3027 -62.1617 0 0 0 
81 3 1 -15.3794 -10.9515 -48.4205 0 0 0 
76 1 1 -9.12934 -10.9223 -55.0524 0 0 0 
79 1 1 -8.54381 -10.1871 -51.534 0 0 0 
80 2 1 -11.9333 -10.2456 -49.6627 0 0 0 
82 1 1 -7.95828 -9.45196 -48.0156 0 0 0 
78 3 1 -2.01466 -12.8323 -55.1249 0 0 0 
83 2 1 -4.43081 -10.3911 -48.9133 0 0 0 
84 3 1 -0.843596 -11.362 -48.0881 0 0 0 
85 1 1 -7.37275 -8.7168 -44.4972 0 0 0 
86 2 1 -10.7623 -8.77528 -42.6259 0 0 0 
87 3 1 -14.2083 -9.4812 -41.3836 0 0 0 
88 1 1 -6.78722 -7.98163 -40.9788 0 0 0 
91 1 1 -6.20169 -7.24647 -37.4604 0 0 0 
92 2 1 -9.59121 -7.30495 -35.5891 0 0 0 
89 2 1 -3.25975 -8.92082 -41.8765 0 0 0 
90 3 1 0.327464 -9.89168 -41.0513 0 0 0 
93 3 1 -13.0373 -8.01088 -34.3468 0 0 0 
94 1 1 -5.61616 -6.51131 -33.942 0 0 0 
97 1 1 -5.03063 -5.77614 -30.4236 0 0 0 
98 2 1 -8.42014 -5.83463 -28.5523 0 0 0 
99 3 1 -11.8662 -6.54055 -27.31 0 0 0 
95 2 1 -2.08869 -7.45049 -34.8397 0 0 0 
96 3 1 1.49853 -8.42135 -34.0145 0 0 0 
100 1 1 -4.4451 -5.04098 -26.9052 0 0 0 
101 2 1 -0.91763 -5.98017 -27.8029 0 0 0 
102 3 1 2.66959 -6.95103 -26.9778 0 0 0 
105 3 1 -10.6951 -5.07022 -20.2732 0 0 0 
108 3 1 3.84065 -5.4807 -19.9409 0 0 0 
104 2 1 -7.24908 -4.3643 -21.5155 0 0 0 
103 1 1 -3.85956 -4.30582 -23.3868 0 0 0 
106 1 1 -3.27403 -3.57065 -19.8684 0 0 0 
107 2 1 0.253431 -4.50984 -20.7661 0 0 0 
109 1 1 -2.6885 -2.83549 -16.35 0 0 0 
110 2 1 -6.07802 -2.89397 -14.4787 0 0 0 
111 3 1 -9.52409 -3.5999 -13.2364 0 0 0 
117 3 1 -8.35303 -2.12957 -6.19964 0 0 0 
112 1 1 -2.10297 -2.10033 -12.8316 0 0 0 
113 2 1 1.42449 -3.03951 -13.7293 0 0 0 
114 3 1 5.01171 -4.01037 -12.9041 0 0 0 
115 1 1 -1.51744 -1.36516 -9.31319 0 0 0 
116 2 1 -4.90696 -1.42365 -7.44193 0 0 0 
118 1 1 -0.931911 -0.629998 -5.79479 0 0 0 
119 2 1 2.59555 -1.56918 -6.69249 0 0 0 
120 3 1 6.18277 -2.54004 -5.86735 0 0 0 
123 3 1 -7.18197 -0.659241 0.837158 0 0 0 
121 1 1 -0.34638 0.105164 -2.27638 0 0 0 
122 2 1 -3.7359 0.046681 -0.405124 0 0 0 
124 1 1 0.23915 0.840328 1.24202 0 0 0 
125 2 1 3.76661 -0.098857 0.344313 0 0 0 
127 1 1 0.82468 1.57549 4.76042 0 0 0 
126 3 1 7.35383 -1.06972 1.16945 0 0 0 
129 3 1 -6.01091 0.811085 7.87396 0 0 0 
128 2 1 -2.56484 1.51701 6.63168 0 0 0 
130 1 1 1.41021 2.31066 8.27882 0 0 0 
131 2 1 4.93768 1.37147 7.38111 0 0 0 
133 1 1 1.99574 3.04582 11.7972 0 0 0 
134 2 1 -1.39377 2.98733 13.6685 0 0 0 
135 3 1 -4.83985 2.28141 14.9108 0 0 0 
132 3 1 8.52489 0.400609 8.20626 0 0 0 
137 2 1 6.10874 2.8418 14.4179 0 0 0 
136 1 1 2.58127 3.78098 15.3156 0 0 0 
139 1 1 3.1668 4.51615 18.834 0 0 0 
140 2 1 -0.222713 4.45766 20.7053 0 0 0 
141 3 1 -3.66878 3.75174 21.9476 0 0 0 
138 3 1 9.69595 1.87094 15.2431 0 0 0 
143 2 1 7.2798 4.31212 21.4547 0 0 0 
144 3 1 10.867 3.34126 22.2798 0 0 0 
142 1 1 3.75233 5.25131 22.3524 0 0 0 
150 3 1 12.0381 4.81159 29.3167 0 0 0 
145 1 1 4.33786 5.98647 25.8708 0 0 0 
146 2 1 0.948347 5.92799 27.7421 0 0 0 
147 3 1 -2.49772 5.22207 28.9844 0 0 0 
148 1 1 4.9234 6.72164 29.3892 0 0 0 
152 2 1 2.11941 7.39832 34.7789 0 0 0 
149 2 1 8.45086 5.78245 28.4915 0 0 0 
151 1 1 5.50893 7.4568 32.9076 0 0 0 
153 3 1 -1.32666 6.69239 36.0212 0 0 0 
158 2 1 3.29047 8.86864 41.8157 0 0 0 
159 3 1 -0.155599 8.16272 43.058 0 0 0 
154 1 1 6.09446 8.19196 36.426 0 0 0 
155 2 1 9.62192 7.25278 35.5283 0 0 0 
156 3 1 13.2091 6.28192 36.3535 0 0 0 
157 1 1 6.67999 8.92713 39.9444 0 0 0 
160 1 1 7.26552 9.66229 43.4628 0 0 0 
161 2 1 10.793 8.72311 42.5651 0 0 0 
162 3 1 14.3802 7.75224 43.3903 0 0 0 
164 2 1 4.46153 10.339 48.8525 0 0 0 
165 3 1 1.01546 9.63305 50.0948 0 0 0 
163 1 1 7.85105 10.3974 46.9812 0 0 0 
166 1 1 8.43658 11.1326 50.4996 0 0 0 
167 2 1 11.964 10.1934 49.6019 0 0 0 
169 1 1 9.02211 11.8678 54.018 0 0 0 
168 3 1 15.5513 9.22257 50.4271 0 0 0 
171 3 1 2.18652 11.1034 57.1316 0 0 0 
177 3 1 3.35758 12.5737 64.1684 0 0 0 
170 2 1 5.63259 11.8093 55.8893 0 0 0 
172 1 1 9.60764 12.6029 57.5364 0 0 0 
173 2 1 13.1351 11.6638 56.6387 0 0 0 
175 1 1 10.1932 13.3381 61.0548 0 0 0 
176 2 1 6.80365 13.2796 62.9261 0 0 0 
178 1 1 10.7787 14.0733 64.5732 0 0 0 
179 2 1 14.3062 13.1341 63.6755 0 0 0 
174 3 1 16.7223 10.6929 57.4639 0 0 0 
180 3 1 17.8934 12.1632 64.5007 0 0 0 
183 3 1 4.52865 14.044 71.2052 0 0 0 
181 1 1 11.3642 14.8084 68.0916 0 0 0 
182 2 1 7.97472 14.75 69.9629 0 0 0 
185 2 1 15.4772 14.6044 70.7123 0 0 0 
186 3 1 19.0644 13.6335 71.5375 0 0 0 
184 1 1 11.9498 15.5436 71.61 0 0 0 
187 1 1 12.5353 16.2788 75.1284 0 0 0 
188 2 1 9.14578 16.2203 76.9997 0 0 0 
189 3 1 5.69971 15.5144 78.242 0 0 0 
190 1 1 13.1208 17.0139 78.6468 0 0 0 
193 1 1 13.7064 17.7491 82.1652 0 0 0 
194 2 1 10.3168 17.6906 84.0365 0 0 0 
191 2 1 16.6483 16.0747 77.7491 0 0 0 
192 3 1 20.2355 15.1039 78.5743 0 0 0 
197 2 1 17.8194 17.5451 84.7859 0 0 0 
195 3 1 6.87077 16.9847 85.2788 0 0 0 
196 1 1 14.2919 18.4842 85.6836 0 0 0 
199 1 1 14.8774 19.2194 89.202 0 0 0 
200 2 1 11.4879 19.1609 91.0733 0 0 0 
201 3 1 8.04183 18.455 92.3156 0 0 0 
198 3 1 21.4066 16.5742 85.6111 0 0 0 
202 1 1 15.4629 19.9546 92.7204 0 0 0 
203 2 1 18.9904 19.0154 91.8227 0 0 0 
204 3 1 22.5776 18.0445 92.6479 0 0 0 
206 2 1 12.659 20.6313 98.1101 0 0 0 
207 3 1 9.21289 19.9253 99.3524 0 0 0 
212 2 1 13.83 22.1016 105.147 0 0 0 
205 1 1 16.0485 20.6897 96.2388 0 0 0 
208 1 1 16.634 21.4249 99.7572 0 0 0 
209 2 1 20.1615 20.4857 98.8595 0 0 0 
210 3 1 23.7487 19.5149 99.6847 0 0 0 
211 1 1 17.2195 22.1601 103.276 0 0 0 
213 3 1 10.384 21.3957 106.389 0 0 0 
218 2 1 15.0011 23.5719 112.184 0 0 0 
219 3 1 11.555 22.866 113.426 0 0 0 
214 1 1 17.8051 22.8952 106.794 0 0 0 
215 2 1 21.3325 21.956 105.896 0 0 0 
216 3 1 24.9198 20.9852 106.721 0 0 0 
217 1 1 18.3906 23.6304 110.312 0 0 0 
220 1 1 18.9761 24.3656 113.831 0 0 0 
221 2 1 22.5036 23.4264 112.933 0 0 0 
222 3 1 26.0908 22.4555 113.758 0 0 0 
225 3 1 12.7261 24.3363 120.463 0 0 0 
224 2 1 16.1721 25.0422 119.22 0 0 0 
227 2 1 23.6747 24.8967 119.97 0 0 0 
228 3 1 27.2619 23.9258 120.795 0 0 0 
223 1 1 19.5617 25.1007 117.349 0 0 0 
226 1 1 20.1472 25.8359 120.868 0 0 0 
229 1 1 20.7327 26.571 124.386 0 0 0 
231 3 1 13.8971 25.8066 127.499 0 0 0 
230 2 1 17.3432 26.5126 126.257 0 0 0 
232 1 1 21.3182 27.3062 127.904 0 0 0 
233 2 1 24.8457 26.367 127.007 0 0 0 
235 1 1 21.9038 28.0414 131.423 0 0 0 
236 2 1 18.5143 27.9829 133.294 0 0 0 
237 3 1 15.0682 27.277 134.536 0 0 0 
238 1 1 22.4893 28.7765 134.941 0 0 0 
234 3 1 28.4329 25.3962 127.832 0 0 0 
239 2 1 26.0168 27.8374 134.043 0 0 0 
240 3 1 29.604 26.8665 134.869 0 0 0 
241 1 1 23.0748 29.5117 138.46 0 0 0 
242 2 1 19.6853 29.4532 140.331 0 0 0 
243 3 1 16.2393 28.7473 141.573 0 0 0 
244 1 1 23.6604 30.2469 141.978 0 0 0 
245 2 1 27.1878 29.3077 141.08 0 0 0 
246 3 1 30.7751 28.3368 141.905 0 0 0 
ITEM: TIMESTEP
100000
ITEM: NUMBER OF ATOMS
246
ITEM: BOX BOUNDS pp pp pp
-195.502 195.502
-195.502 195.502
-195.502 195.502
ITEM: ATOMS id type mol x y z ix iy iz 
9 3 1 -33.4985 4.03879 -94.8406 0 0 0 
1 1 1 -42.7354 3.03434 -103.685 0 0 0 
11 2 1 -36.2661 -6.56379 -97.8274 0 0 0 
8 2 1 -35.3346 2.0794 -97.5329 0 0 0 
7 1 1 -37.6293 -0.103584 -99.01 0 0 0 
4 1 1 -40.2283 0.761 -101.772 0 0 0 
10 1 1 -35.94 -2.74958 -96.6981 0 0 0 
5 2 1 -39.3744 -3.07212 -102.625 0 0 0 
12 3 1 -35.0094 -9.28652 -99.6125 0 0 0 
3 3 1 -46.1919 5.53857 -97.9332 0 0 0 
2 2 1 -43.955 3.43531 -99.9869 0 0 0 
20 2 1 -38.0288 -5.24547 -85.2188 0 0 0 
16 1 1 -34.5076 -7.04498 -90.7094 0 0 0 
19 1 1 -36.1392 -7.69125 -87.3758 0 0 0 
21 3 1 -38.8934 -2.21836 -83.1304 0 0 0 
17 2 1 -32.9793 -10.685 -89.8456 0 0 0 
18 3 1 -29.5291 -11.2639 -89.8949 0 0 0 
6 3 1 -39.8554 -6.02848 -104.475 0 0 0 
13 1 1 -34.2061 -4.64146 -93.8062 0 0 0 
15 3 1 -27.3256 -4.62359 -89.9902 0 0 0 
14 2 1 -30.2801 -4.90544 -92.3281 0 0 0 
27 3 1 -44.6328 -10.2226 -77.7278 0 0 0 
26 2 1 -40.8297 -10.2602 -78.6896 0 0 0 
25 1 1 -37.359 -11.2576 -80.5005 0 0 0 
22 1 1 -36.6216 -9.65205 -83.9404 0 0 0 
28 1 1 -36.6397 -13.368 -77.2488 0 0 0 
29 2 1 -34.2792 -16.6673 -77.8934 0 0 0 
23 2 1 -34.953 -13.1955 -83.8227 0 0 0 
24 3 1 -32.6573 -16.0925 -82.5153 0 0 0 
30 3 1 -32.747 -20.1225 -78.1032 0 0 0 
39 3 1 -43.4012 -18.1434 -63.5358 0 0 0 
32 2 1 -40.1234 -13.9977 -71.6924 0 0 0 
33 3 1 -42.0722 -13.0256 -68.9541 0 0 0 
38 2 1 -40.3131 -18.0691 -65.2132 0 0 0 
40 1 1 -36.5465 -20.7187 -63.5764 0 0 0 
34 1 1 -36.6358 -17.3233 -70.5155 0 0 0 
37 1 1 -36.8624 -19.041 -67.1737 0 0 0 
35 2 1 -33.8754 -19.8253 -69.726 0 0 0 
31 1 1 -36.8673 -15.1366 -73.7309 0 0 0 
42 3 1 -39.1449 -15.6587 -60.2679 0 0 0 
45 3 1 -39.1579 -28.2997 -57.3861 0 0 0 
44 2 1 -38.2829 -25.0643 -58.7745 0 0 0 
46 1 1 -33.5186 -23.4249 -57.1954 0 0 0 
49 1 1 -30.6064 -23.773 -54.6511 0 0 0 
47 2 1 -35.2976 -24.2692 -53.5342 0 0 0 
52 1 1 -27.1477 -23.548 -53.168 0 0 0 
66 3 1 -7.91271 -16.8647 -52.1033 0 0 0 
41 2 1 -38.7545 -19.2823 -61.131 0 0 0 
43 1 1 -35.7316 -22.466 -60.2835 0 0 0 
57 3 1 -19.8335 -21.0624 -59.4926 0 0 0 
60 3 1 -13.9325 -17.4486 -54.9136 0 0 0 
59 2 1 -16.8125 -19.3835 -53.3508 0 0 0 
56 2 1 -21.2856 -20.8405 -56.2054 0 0 0 
55 1 1 -23.2956 -22.6482 -53.0286 0 0 0 
36 3 1 -30.5718 -21.3226 -70.1121 0 0 0 
48 3 1 -38.408 -26.0955 -52.5549 0 0 0 
50 2 1 -31.0552 -24.7539 -51.2046 0 0 0 
51 3 1 -32.3213 -24.5967 -47.8117 0 0 0 
53 2 1 -26.3237 -24.0523 -49.2495 0 0 0 
54 3 1 -23.8271 -24.8444 -46.3432 0 0 0 
70 1 1 -8.94856 -23.4527 -43.7181 0 0 0 
65 2 1 -9.2968 -20.041 -51.4775 0 0 0 
71 2 1 -5.82882 -22.3673 -41.36 0 0 0 
68 2 1 -6.74448 -20.626 -46.1115 0 0 0 
58 1 1 -19.5917 -22.1782 -52.5102 0 0 0 
61 1 1 -16.1102 -23.0279 -51.1785 0 0 0 
63 3 1 -13.9991 -29.9981 -48.4147 0 0 0 
62 2 1 -14.4213 -26.2703 -49.3323 0 0 0 
67 1 1 -10.3537 -22.1112 -47.088 0 0 0 
64 1 1 -12.6598 -21.8125 -50.1493 0 0 0 
72 3 1 -2.37681 -22.9719 -39.9898 0 0 0 
69 3 1 -5.47965 -17.5399 -44.4769 0 0 0 
73 1 1 -9.10349 -25.499 -40.2619 0 0 0 
76 1 1 -10.3944 -27.4828 -37.195 0 0 0 
77 2 1 -13.3136 -30.41 -37.3425 0 0 0 
78 3 1 -15.742 -32.5782 -39.148 0 0 0 
74 2 1 -6.03843 -26.9613 -38.0308 0 0 0 
75 3 1 -3.76192 -26.0248 -35.327 0 0 0 
79 1 1 -9.88577 -28.5563 -33.6054 0 0 0 
85 1 1 -8.64408 -28.9653 -26.3024 0 0 0 
82 1 1 -10.2442 -28.4441 -29.8274 0 0 0 
86 2 1 -4.77269 -29.7079 -25.5966 0 0 0 
83 2 1 -13.433 -27.4607 -27.7357 0 0 0 
84 3 1 -16.7443 -26.2157 -26.573 0 0 0 
80 2 1 -6.88432 -30.5537 -32.64 0 0 0 
81 3 1 -3.36752 -30.2459 -31.7563 0 0 0 
93 3 1 -8.96463 -37.1507 -16.7718 0 0 0 
90 3 1 -15.8162 -30.7479 -20.8045 0 0 0 
92 2 1 -7.14311 -33.8922 -17.3842 0 0 0 
88 1 1 -8.68723 -29.2971 -22.4643 0 0 0 
91 1 1 -7.91115 -30.0366 -18.7264 0 0 0 
94 1 1 -6.97689 -30.019 -14.9038 0 0 0 
89 2 1 -12.4769 -29.3102 -21.0451 0 0 0 
87 3 1 -1.4145 -29.3012 -27.1604 0 0 0 
95 2 1 -7.93442 -33.1472 -12.7318 0 0 0 
96 3 1 -10.2957 -35.3333 -10.7934 0 0 0 
97 1 1 -6.09422 -29.2694 -11.1951 0 0 0 
100 1 1 -5.95393 -29.4637 -7.14543 0 0 0 
101 2 1 -5.8919 -33.4129 -5.79262 0 0 0 
99 3 1 -2.17892 -23.8844 -8.12194 0 0 0 
103 1 1 -5.15349 -29.3092 -3.37273 0 0 0 
98 2 1 -3.91199 -26.0026 -10.3495 0 0 0 
102 3 1 -7.4124 -36.8861 -5.83257 0 0 0 
106 1 1 -5.16756 -29.9004 0.440632 0 0 0 
104 2 1 -3.31332 -25.8221 -1.8948 0 0 0 
107 2 1 -6.90107 -33.241 1.74452 0 0 0 
108 3 1 -6.18914 -36.9878 2.33515 0 0 0 
109 1 1 -5.03533 -29.7158 4.36038 0 0 0 
105 3 1 -0.675919 -23.814 0.0799157 0 0 0 
110 2 1 -5.40426 -32.7158 7.07387 0 0 0 
112 1 1 -5.13006 -27.6205 7.64903 0 0 0 
113 2 1 -5.34357 -28.9468 11.3413 0 0 0 
111 3 1 -6.30916 -36.1704 8.24876 0 0 0 
114 3 1 -5.43633 -31.5951 13.6441 0 0 0 
115 1 1 -4.908 -24.1368 9.401 0 0 0 
118 1 1 -4.63236 -20.406 10.8564 0 0 0 
117 3 1 -4.95831 -25.6854 16.6521 0 0 0 
121 1 1 -4.12194 -16.6975 12.0314 0 0 0 
119 2 1 -3.02858 -19.4257 14.5924 0 0 0 
116 2 1 -5.44063 -24.3494 13.4027 0 0 0 
120 3 1 -3.20163 -18.7872 18.4391 0 0 0 
122 2 1 -5.9185 -13.931 9.68326 0 0 0 
123 3 1 -7.09889 -10.6713 9.42692 0 0 0 
128 2 1 -4.69619 -7.13407 14.0255 0 0 0 
129 3 1 -7.88501 -5.52243 12.678 0 0 0 
124 1 1 -2.61808 -13.4874 13.5113 0 0 0 
127 1 1 -1.6746 -9.82402 14.2397 0 0 0 
126 3 1 2.87016 -12.8901 18.5651 0 0 0 
125 2 1 1.10522 -13.1207 15.5707 0 0 0 
144 3 1 12.9935 6.61119 8.22006 0 0 0 
147 3 1 15.9769 11.4415 10.3215 0 0 0 
146 2 1 12.9346 11.0686 12.0593 0 0 0 
153 3 1 18.0981 17.2257 9.79083 0 0 0 
152 2 1 15.6567 17.1364 12.5728 0 0 0 
165 3 1 25.4101 29.8033 12.9722 0 0 0 
132 3 1 -4.5777 -0.837603 13.5783 0 0 0 
131 2 1 -1.74689 -2.7445 13.9669 0 0 0 
130 1 1 0.0702821 -6.41513 14.5624 0 0 0 
134 2 1 6.9454 -3.57769 15.7559 0 0 0 
135 3 1 10.1361 -3.7608 17.7984 0 0 0 
133 1 1 2.82227 -3.71984 14.7972 0 0 0 
136 1 1 3.55263 0.0571119 14.2516 0 0 0 
139 1 1 5.00804 3.5601 13.7685 0 0 0 
138 3 1 -2.56834 4.12405 16.482 0 0 0 
137 2 1 0.259279 2.23804 14.7647 0 0 0 
140 2 1 3.18656 6.38549 11.3011 0 0 0 
141 3 1 1.34697 7.48144 8.16488 0 0 0 
143 2 1 10.2211 6.95745 10.5069 0 0 0 
142 1 1 7.7723 6.37097 13.6963 0 0 0 
145 1 1 10.1532 9.29206 14.4434 0 0 0 
149 2 1 10.0181 14.9283 18.526 0 0 0 
148 1 1 11.6836 12.4958 15.7041 0 0 0 
150 3 1 8.88391 18.2142 20.2289 0 0 0 
151 1 1 14.1976 15.4761 15.8859 0 0 0 
154 1 1 16.3843 18.4079 17.2105 0 0 0 
157 1 1 18.4186 21.7863 17.7547 0 0 0 
158 2 1 18.0581 25.1777 16.2184 0 0 0 
160 1 1 21.4741 23.4576 19.4977 0 0 0 
155 2 1 17.52 18.9198 21.0681 0 0 0 
156 3 1 19.0372 18.1408 24.3506 0 0 0 
161 2 1 23.7596 22.5291 22.5474 0 0 0 
159 3 1 19.5892 28.221 15.3107 0 0 0 
163 1 1 24.0669 26.2949 19.5033 0 0 0 
164 2 1 24.633 28.7438 16.2115 0 0 0 
166 1 1 27.364 28.1663 20.3253 0 0 0 
167 2 1 29.2083 31.5393 18.7709 0 0 0 
170 2 1 32.8104 31.7062 22.1133 0 0 0 
169 1 1 30.5479 28.3385 22.5361 0 0 0 
171 3 1 34.5301 34.8677 23.4336 0 0 0 
177 3 1 40.5787 34.1267 26.7961 0 0 0 
168 3 1 29.695 33.3146 15.824 0 0 0 
173 2 1 32.4674 25.0586 28.0121 0 0 0 
174 3 1 32.4135 22.3369 30.3077 0 0 0 
162 3 1 25.1845 21.9949 26.0675 0 0 0 
172 1 1 33.4849 27.7478 25.1423 0 0 0 
175 1 1 36.3914 28.0217 27.5339 0 0 0 
176 2 1 39.3357 30.69 26.4058 0 0 0 
180 3 1 45.1138 30.9451 31.8177 0 0 0 
178 1 1 38.5373 27.7179 30.8304 0 0 0 
179 2 1 42.3078 28.832 31.1165 0 0 0 
186 3 1 34.0542 29.7661 43.0257 0 0 0 
184 1 1 39.4727 26.6251 38.4029 0 0 0 
185 2 1 36.5451 27.8054 40.7754 0 0 0 
187 1 1 40.0454 25.3446 41.9052 0 0 0 
188 2 1 43.3865 23.1878 42.9782 0 0 0 
189 3 1 45.3061 20.2076 43.2269 0 0 0 
181 1 1 39.4672 27.2592 34.5204 0 0 0 
182 2 1 42.7982 28.8897 36.2636 0 0 0 
183 3 1 44.3807 26.2561 38.546 0 0 0 
190 1 1 39.3139 24.5427 45.6863 0 0 0 
191 2 1 40.9192 22.3903 48.7131 0 0 0 
193 1 1 37.2061 25.2463 48.8109 0 0 0 
194 2 1 38.9579 24.3262 52.3771 0 0 0 
192 3 1 42.7388 19.5438 50.2967 0 0 0 
197 2 1 30.4179 26.0816 51.2108 0 0 0 
196 1 1 34.4728 25.5366 51.6036 0 0 0 
206 2 1 28.9497 29.9361 63.4754 0 0 0 
202 1 1 32.3491 25.4787 59.0708 0 0 0 
207 3 1 26.5431 32.7248 62.4228 0 0 0 
205 1 1 30.9898 26.5557 62.6239 0 0 0 
195 3 1 39.7346 25.7674 55.8698 0 0 0 
203 2 1 34.3867 22.8195 61.5137 0 0 0 
204 3 1 36.7301 20.4172 63.107 0 0 0 
200 2 1 28.6516 25.3819 55.7399 0 0 0 
201 3 1 24.9001 24.6094 55.3885 0 0 0 
198 3 1 28.1515 23.3869 49.9878 0 0 0 
199 1 1 32.7674 25.5086 55.1883 0 0 0 
213 3 1 28.1714 32.6962 74.9097 0 0 0 
212 2 1 27.4525 29.662 72.5381 0 0 0 
208 1 1 29.8651 26.1734 66.3771 0 0 0 
209 2 1 31.427 22.9869 68.3189 0 0 0 
211 1 1 28.3315 26.7153 69.9348 0 0 0 
214 1 1 26.704 24.7468 72.9498 0 0 0 
210 3 1 32.8002 19.8101 67.9193 0 0 0 
220 1 1 22.0823 22.2101 78.4807 0 0 0 
215 2 1 28.5073 21.1827 73.8674 0 0 0 
218 2 1 23.5623 19.265 75.5975 0 0 0 
219 3 1 22.2952 16.0281 74.7021 0 0 0 
216 3 1 29.9182 18.0074 73.8214 0 0 0 
217 1 1 24.3967 23.2953 75.4544 0 0 0 
228 3 1 15.6468 19.4238 90.4273 0 0 0 
227 2 1 17.2026 21.2904 87.7345 0 0 0 
226 1 1 17.4159 23.6159 84.3266 0 0 0 
223 1 1 19.7951 22.3377 81.5869 0 0 0 
221 2 1 20.6235 18.9285 79.088 0 0 0 
222 3 1 21.2348 15.4183 79.312 0 0 0 
237 3 1 1.97852 27.9343 89.2027 0 0 0 
241 1 1 2.89659 33.3246 92.425 0 0 0 
238 1 1 5.79873 31.0322 91.1889 0 0 0 
235 1 1 8.78785 29.1652 89.3202 0 0 0 
236 2 1 5.1369 28.3282 87.6324 0 0 0 
232 1 1 12.3263 27.7814 88.5895 0 0 0 
233 2 1 13.6378 29.0758 91.8386 0 0 0 
234 3 1 15.06 30.9875 94.4659 0 0 0 
229 1 1 15.1397 25.9697 86.6314 0 0 0 
230 2 1 16.5807 27.7034 89.7648 0 0 0 
224 2 1 19.2645 19.163 84.0018 0 0 0 
225 3 1 20.6167 16.7314 86.2001 0 0 0 
231 3 1 19.0676 30.4588 89.9022 0 0 0 
239 2 1 5.89789 30.782 95.2561 0 0 0 
244 1 1 0.0804965 35.7334 91.5043 0 0 0 
243 3 1 -1.60753 32.6317 96.6495 0 0 0 
242 2 1 1.55234 33.9024 95.5806 0 0 0 
246 3 1 -2.83329 32.5439 86.018 0 0 0 
245 2 1 -2.68225 34.7554 88.7918 0 0 0 
240 3 1 8.54514 30.7264 98.055 0 0 0 
ITEM: TIMESTEP
200000
ITEM: NUMBER OF ATOMS
246
ITEM: BOX BOUNDS pp pp pp
-195.502 195.502
-195.502 195.502
-195.502 195.502
ITEM: ATOMS id type mol x y z ix iy iz 
27 3 1 3.76452 -48.6028 -45.0205 0 0 0 
33 3 1 -2.5867 -41.1284 -42.0366 0 0 0 
18 3 1 11.4228 -64.1441 -38.096 0 0 0 
15 3 1 10.0986 -65.0506 -32.4097 0 0 0 
22 1 1 4.22018 -56.2736 -38.0383 0 0 0 
16 1 1 4.66974 -63.359 -35.1976 0 0 0 
19 1 1 4.84306 -59.8149 -36.7326 0 0 0 
20 2 1 8.03774 -58.5139 -38.8669 0 0 0 
21 3 1 11.8209 -58.9593 -39.1237 0 0 0 
17 2 1 7.65415 -63.3394 -38.0162 0 0 0 
36 3 1 -10.227 -49.1052 -35.4083 0 0 0 
31 1 1 -1.81322 -46.7333 -37.495 0 0 0 
25 1 1 2.71137 -52.7747 -38.9732 0 0 0 
28 1 1 0.634121 -49.4798 -38.7662 0 0 0 
29 2 1 0.16727 -46.9779 -41.7434 0 0 0 
26 2 1 3.98544 -50.8247 -42.0242 0 0 0 
32 2 1 -1.77892 -43.3243 -39.403 0 0 0 
24 3 1 9.26602 -52.6751 -42.3971 0 0 0 
23 2 1 7.59582 -54.9319 -39.8837 0 0 0 
37 1 1 -7.46213 -42.0486 -34.3657 0 0 0 
40 1 1 -9.41599 -38.8963 -33.5926 0 0 0 
38 2 1 -10.7466 -43.0588 -32.321 0 0 0 
35 2 1 -8.20693 -46.2169 -36.8817 0 0 0 
39 3 1 -12.9554 -43.5825 -29.0994 0 0 0 
41 2 1 -12.8769 -38.6962 -31.5474 0 0 0 
30 3 1 1.14441 -44.6045 -44.068 0 0 0 
34 1 1 -4.73218 -44.5246 -35.9544 0 0 0 
63 3 1 -19.3027 -8.29706 -29.5374 0 0 0 
69 3 1 -20.3161 -8.50608 -38.6737 0 0 0 
77 2 1 -16.3509 6.80022 -37.8831 0 0 0 
78 3 1 -14.963 9.61023 -39.5221 0 0 0 
72 3 1 -19.4823 -0.585844 -40.6709 0 0 0 
71 2 1 -17.5134 -1.05791 -37.34 0 0 0 
81 3 1 -21.0135 13.4546 -39.8364 0 0 0 
80 2 1 -21.3344 10.3212 -38.1142 0 0 0 
84 3 1 -20.9728 18.5306 -33.6897 0 0 0 
2 2 1 -2.75546 -76.0682 -23.9352 0 0 0 
3 3 1 -2.81692 -72.9854 -22.3362 0 0 0 
6 3 1 -9.08468 -71.1937 -27.4184 0 0 0 
1 1 1 -4.48319 -78.0439 -26.789 0 0 0 
4 1 1 -3.16195 -74.6616 -28.2098 0 0 0 
9 3 1 5.5429 -73.1095 -26.9092 0 0 0 
7 1 1 -0.789199 -72.0512 -29.8619 0 0 0 
8 2 1 3.09428 -72.1557 -29.2827 0 0 0 
5 2 1 -5.72275 -71.6149 -28.9388 0 0 0 
10 1 1 0.889346 -69.045 -31.8669 0 0 0 
14 2 1 7.25387 -66.8328 -33.6435 0 0 0 
11 2 1 -1.21909 -65.6306 -32.3699 0 0 0 
12 3 1 -3.72307 -62.9316 -32.0491 0 0 0 
13 1 1 3.22065 -66.4787 -33.3943 0 0 0 
42 3 1 -16.4527 -39.6154 -30.9756 0 0 0 
46 1 1 -11.6931 -31.61 -32.4775 0 0 0 
47 2 1 -9.63356 -28.6258 -34.0396 0 0 0 
43 1 1 -10.3475 -35.169 -33.5325 0 0 0 
49 1 1 -13.6686 -28.5578 -30.9568 0 0 0 
50 2 1 -16.4344 -28.6725 -27.9917 0 0 0 
52 1 1 -14.1475 -24.9381 -29.7687 0 0 0 
44 2 1 -10.3853 -32.5552 -36.5054 0 0 0 
45 3 1 -11.7131 -30.5964 -39.2151 0 0 0 
58 1 1 -13.3502 -17.1525 -30.1624 0 0 0 
61 1 1 -14.0293 -13.4219 -31.2745 0 0 0 
62 2 1 -17.385 -11.5028 -30.1256 0 0 0 
48 3 1 -6.12988 -27.5914 -34.0951 0 0 0 
55 1 1 -13.3716 -21.0608 -29.6126 0 0 0 
64 1 1 -13.9027 -9.89636 -32.7035 0 0 0 
70 1 1 -16.5477 -2.72617 -33.7324 0 0 0 
67 1 1 -15.2727 -6.37749 -33.5421 0 0 0 
65 2 1 -11.1849 -8.09128 -35.0657 0 0 0 
68 2 1 -18.641 -6.83355 -35.7304 0 0 0 
66 3 1 -8.38619 -6.06998 -36.1037 0 0 0 
75 3 1 -16.9249 4.44795 -27.3372 0 0 0 
74 2 1 -18.4088 2.15316 -29.968 0 0 0 
73 1 1 -17.7176 0.887324 -33.223 0 0 0 
76 1 1 -18.1524 4.59852 -34.85 0 0 0 
79 1 1 -19.6633 8.24713 -34.9881 0 0 0 
82 1 1 -20.6928 11.6086 -33.4351 0 0 0 
83 2 1 -20.2345 15.276 -34.9028 0 0 0 
85 1 1 -21.7957 14.2558 -30.8189 0 0 0 
86 2 1 -23.9231 13.0189 -27.4811 0 0 0 
90 3 1 -19.7816 24.2554 -31.2106 0 0 0 
93 3 1 -18.5342 25.6898 -25.2889 0 0 0 
92 2 1 -21.3131 23.2735 -24.1472 0 0 0 
89 2 1 -21.6521 21.4912 -29.3782 0 0 0 
88 1 1 -21.9553 17.544 -28.5573 0 0 0 
91 1 1 -21.9354 19.3239 -24.9872 0 0 0 
51 3 1 -17.8341 -28.8203 -24.8223 0 0 0 
54 3 1 -17.3744 -23.1562 -23.0906 0 0 0 
57 3 1 -14.9854 -17.9463 -22.8335 0 0 0 
59 2 1 -11.4158 -15.0836 -27.3376 0 0 0 
60 3 1 -10.0451 -11.9255 -26.0816 0 0 0 
53 2 1 -15.4769 -23.4277 -26.3455 0 0 0 
56 2 1 -13.3332 -19.0134 -26.0746 0 0 0 
87 3 1 -24.4833 10.1058 -25.6325 0 0 0 
95 2 1 -24.5355 22.5506 -19.9775 0 0 0 
96 3 1 -24.9475 26.305 -21.0297 0 0 0 
94 1 1 -22.4286 19.3767 -21.0301 0 0 0 
98 2 1 -19.0975 17.7302 -15.6174 0 0 0 
97 1 1 -22.6723 18.6756 -17.2122 0 0 0 
103 1 1 -25.0627 17.6974 -9.96165 0 0 0 
109 1 1 -28.0326 18.6356 -3.3593 0 0 0 
106 1 1 -27.1679 17.5992 -6.88147 0 0 0 
100 1 1 -23.3911 18.0724 -13.4685 0 0 0 
99 3 1 -15.6331 18.8387 -14.3189 0 0 0 
101 2 1 -20.4202 15.9907 -11.5991 0 0 0 
102 3 1 -18.4763 14.8875 -8.83489 0 0 0 
104 2 1 -22.1465 18.0012 -7.10356 0 0 0 
105 3 1 -19.3002 19.3959 -5.0329 0 0 0 
108 3 1 -34.065 17.6404 -4.14562 0 0 0 
107 2 1 -31.1914 16.8614 -6.61171 0 0 0 
244 1 1 52.8496 31.0947 -10.7516 0 0 0 
245 2 1 53.7827 27.9185 -12.8788 0 0 0 
246 3 1 55.4962 25.5642 -14.7988 0 0 0 
113 2 1 -33.6675 19.2844 1.37776 0 0 0 
114 3 1 -36.7191 17.6843 3.10479 0 0 0 
111 3 1 -23.5466 22.0384 1.52069 0 0 0 
110 2 1 -24.9785 20.7063 -1.481 0 0 0 
112 1 1 -29.8743 19.3644 -0.0024108 0 0 0 
115 1 1 -29.969 20.4727 3.65884 0 0 0 
116 2 1 -26.469 20.1193 5.73388 0 0 0 
237 3 1 48.7065 34.461 -1.11207 0 0 0 
236 2 1 51.8479 32.5924 -1.227 0 0 0 
232 1 1 55.2277 33.052 4.12795 0 0 0 
230 2 1 51.2244 30.3207 4.03289 0 0 0 
233 2 1 58.1133 35.1239 3.9103 0 0 0 
235 1 1 55.4975 33.0048 0.19834 0 0 0 
234 3 1 61.6711 34.7395 3.38184 0 0 0 
242 2 1 51.2189 35.2606 -7.7466 0 0 0 
243 3 1 50.3713 38.1909 -9.92871 0 0 0 
238 1 1 55.5433 32.3911 -3.61842 0 0 0 
241 1 1 53.8487 32.3043 -7.16515 0 0 0 
239 2 1 58.1689 30.7978 -6.48734 0 0 0 
240 3 1 61.8358 30.2104 -7.77923 0 0 0 
121 1 1 -30.2171 21.2729 11.0317 0 0 0 
124 1 1 -30.5948 21.4032 14.8991 0 0 0 
118 1 1 -30.8372 21.4924 7.26871 0 0 0 
125 2 1 -27.4822 21.2455 16.7806 0 0 0 
117 3 1 -23.7639 18.1404 6.92185 0 0 0 
126 3 1 -24.509 19.7275 18.5805 0 0 0 
120 3 1 -36.1601 25.4031 10.1165 0 0 0 
119 2 1 -33.2124 23.9491 9.09852 0 0 0 
228 3 1 47.1125 28.4046 10.6746 0 0 0 
231 3 1 48.344 28.5198 2.11272 0 0 0 
227 2 1 50.0313 29.1136 8.30093 0 0 0 
123 3 1 -23.5738 19.2451 13.3588 0 0 0 
122 2 1 -27.2348 18.9487 12.5812 0 0 0 
223 1 1 51.0616 29.4188 14.531 0 0 0 
226 1 1 52.2495 30.9475 11.008 0 0 0 
229 1 1 53.3111 31.9642 7.22508 0 0 0 
225 3 1 49.0114 36.7872 15.2095 0 0 0 
224 2 1 50.5621 33.3511 14.7149 0 0 0 
138 3 1 -26.1929 17.4158 31.7936 0 0 0 
130 1 1 -33.1926 21.6019 22.0841 0 0 0 
127 1 1 -31.8956 21.7714 18.4682 0 0 0 
133 1 1 -33.6048 20.0493 25.7305 0 0 0 
137 2 1 -29.4305 17.218 30.4422 0 0 0 
211 1 1 44.0359 19.6965 23.6156 0 0 0 
213 3 1 42.7685 26.9909 21.66 0 0 0 
221 2 1 54.4993 28.0011 17.2289 0 0 0 
214 1 1 46.9505 21.669 21.6624 0 0 0 
222 3 1 58.0549 26.7101 16.4985 0 0 0 
129 3 1 -36.5539 27.687 18.5836 0 0 0 
128 2 1 -34.4952 24.8564 19.078 0 0 0 
131 2 1 -35.9077 23.8981 23.7698 0 0 0 
132 3 1 -38.9328 26.0132 24.6498 0 0 0 
212 2 1 42.6106 23.2373 22.4585 0 0 0 
220 1 1 50.4944 26.9948 17.3807 0 0 0 
218 2 1 53.3656 24.8813 20.5793 0 0 0 
217 1 1 49.2546 24.3084 19.9522 0 0 0 
219 3 1 56.6872 24.4169 21.3327 0 0 0 
174 3 1 5.8396 10.0752 37.587 0 0 0 
179 2 1 8.72922 10.9655 33.5109 0 0 0 
180 3 1 8.77031 14.178 32.1254 0 0 0 
191 2 1 23.4504 8.68295 37.5954 0 0 0 
195 3 1 30.0743 7.18702 39.3283 0 0 0 
145 1 1 -29.2197 13.6805 38.6395 0 0 0 
146 2 1 -26.1408 16.3156 38.1417 0 0 0 
162 3 1 -10.8394 13.0995 36.7075 0 0 0 
168 3 1 -5.40635 13.673 36.2956 0 0 0 
173 2 1 2.33367 9.37381 36.4122 0 0 0 
189 3 1 24.1654 11.9924 27.8976 0 0 0 
185 2 1 15.7544 12.8768 31.1278 0 0 0 
184 1 1 14.9607 8.9962 32.1821 0 0 0 
187 1 1 18.8098 9.68589 32.0458 0 0 0 
186 3 1 16.5923 15.5585 29.0494 0 0 0 
188 2 1 21.1775 10.2047 29.4394 0 0 0 
190 1 1 22.1086 9.81215 34.0141 0 0 0 
197 2 1 31.6261 8.45285 31.5118 0 0 0 
196 1 1 29.3591 11.6841 32.2078 0 0 0 
193 1 1 25.9959 10.7222 33.9932 0 0 0 
194 2 1 28.6364 9.33396 36.6892 0 0 0 
199 1 1 32.8847 12.657 31.1612 0 0 0 
202 1 1 36.1869 13.5285 29.502 0 0 0 
204 3 1 40.6858 8.60972 31.7481 0 0 0 
203 2 1 38.5706 10.3784 29.5322 0 0 0 
200 2 1 35.7408 10.9083 33.1736 0 0 0 
201 3 1 38.5706 12.0333 35.5339 0 0 0 
134 2 1 -37.2713 20.5514 27.2042 0 0 0 
136 1 1 -32.823 17.7388 28.8782 0 0 0 
139 1 1 -33.2108 15.7119 32.3877 0 0 0 
142 1 1 -31.3907 14.441 35.5374 0 0 0 
140 2 1 -36.4911 14.1353 34.0929 0 0 0 
141 3 1 -39.9297 14.0943 34.8481 0 0 0 
147 3 1 -23.21 17.4056 36.3557 0 0 0 
210 3 1 40.142 24.8071 27.9216 0 0 0 
209 2 1 41.5749 21.9093 26.6122 0 0 0 
208 1 1 41.5307 17.9444 25.9046 0 0 0 
205 1 1 39.1069 15.5399 27.7818 0 0 0 
206 2 1 42.4997 13.0874 28.1387 0 0 0 
216 3 1 53.206 19.3312 19.1099 0 0 0 
207 3 1 45.4468 12.5821 30.3672 0 0 0 
135 3 1 -39.2877 18.5398 25.0558 0 0 0 
215 2 1 50.1765 19.9904 21.0595 0 0 0 
172 1 1 0.291082 6.0405 35.295 0 0 0 
169 1 1 -3.17792 5.72065 36.7405 0 0 0 
170 2 1 -1.59438 2.05177 36.9947 0 0 0 
171 3 1 -2.83145 -1.39306 37.6067 0 0 0 
175 1 1 3.89811 5.98391 33.7632 0 0 0 
178 1 1 7.72578 7.06042 33.2566 0 0 0 
176 2 1 4.79604 3.16153 30.8603 0 0 0 
177 3 1 3.98514 0.680456 28.5355 0 0 0 
192 3 1 23.2418 6.60603 40.3787 0 0 0 
150 3 1 -28.3816 13.2623 48.2846 0 0 0 
149 2 1 -28.3119 11.2353 45.0561 0 0 0 
143 2 1 -32.9696 16.0261 38.9562 0 0 0 
153 3 1 -20.2784 13.6744 49.3759 0 0 0 
151 1 1 -23.7567 10.9468 43.3688 0 0 0 
148 1 1 -26.881 12.0642 41.3538 0 0 0 
154 1 1 -20.1993 9.42157 43.4294 0 0 0 
152 2 1 -22.4189 11.7331 46.8097 0 0 0 
155 2 1 -18.0504 9.47659 46.9261 0 0 0 
157 1 1 -17.0206 7.58005 42.3071 0 0 0 
161 2 1 -11.6327 10.2747 39.0228 0 0 0 
160 1 1 -13.6769 7.058 40.5764 0 0 0 
163 1 1 -10.3034 5.97615 39.0289 0 0 0 
164 2 1 -9.71765 2.57479 37.8934 0 0 0 
167 2 1 -5.58212 9.99634 36.4141 0 0 0 
166 1 1 -6.77673 6.28293 37.495 0 0 0 
181 1 1 11.5247 7.37672 32.6344 0 0 0 
183 3 1 17.6346 2.57382 33.6387 0 0 0 
182 2 1 14.1599 4.21931 32.9682 0 0 0 
198 3 1 34.0365 5.94728 31.2294 0 0 0 
144 3 1 -34.2305 18.6563 41.2664 0 0 0 
165 3 1 -9.00164 -1.24532 38.5285 0 0 0 
156 3 1 -14.3726 9.51027 47.7466 0 0 0 
159 3 1 -14.1346 1.3451 42.3868 0 0 0 
158 2 1 -15.5528 4.564 43.5982 0 0 0 
ITEM: TIMESTEP
300000
ITEM: NUMBER OF ATOMS
246
ITEM: BOX BOUNDS pp pp pp
-195.502 195.502
-195.502 195.502
-195.502 195.502