ITEM: TIMESTEP
0
ITEM: NUMBER OF ATOMS
252
ITEM: BOX BOUNDS pp pp pp
-197.078 197.078
-197.078 197.078
-197.078 197.078
ITEM: ATOMS id type mol x y z ix iy iz 
2 2 1 -27.7427 -30.095 -144.66 0 0 0 
3 3 1 -31.1887 -30.8009 -143.417 0 0 0 
8 2 1 -26.5716 -28.6247 -137.623 0 0 0 
1 1 1 -24.3531 -30.0365 -146.531 0 0 0 
4 1 1 -23.7676 -29.3014 -143.012 0 0 0 
5 2 1 -20.2401 -30.2406 -143.91 0 0 0 
6 3 1 -16.6529 -31.2114 -143.085 0 0 0 
7 1 1 -23.1821 -28.5662 -139.494 0 0 0 
11 2 1 -19.0691 -28.7702 -136.873 0 0 0 
9 3 1 -30.0177 -29.3306 -136.38 0 0 0 
14 2 1 -25.4005 -27.1544 -130.586 0 0 0 
15 3 1 -28.8466 -27.8603 -129.344 0 0 0 
10 1 1 -22.5965 -27.831 -135.976 0 0 0 
12 3 1 -15.4819 -29.7411 -136.048 0 0 0 
13 1 1 -22.011 -27.0959 -132.457 0 0 0 
16 1 1 -21.4255 -26.3607 -128.939 0 0 0 
17 2 1 -17.898 -27.2999 -129.837 0 0 0 
18 3 1 -14.3108 -28.2708 -129.011 0 0 0 
21 3 1 -27.6755 -26.39 -122.307 0 0 0 
19 1 1 -20.84 -25.6256 -125.42 0 0 0 
20 2 1 -24.2295 -25.684 -123.549 0 0 0 
23 2 1 -16.7269 -25.8296 -122.8 0 0 0 
24 3 1 -13.1397 -26.8004 -121.975 0 0 0 
22 1 1 -20.2544 -24.8904 -121.902 0 0 0 
25 1 1 -19.6689 -24.1552 -118.384 0 0 0 
26 2 1 -23.0584 -24.2137 -116.512 0 0 0 
30 3 1 -11.9687 -25.3301 -114.938 0 0 0 
27 3 1 -26.5045 -24.9196 -115.27 0 0 0 
33 3 1 -25.3334 -23.4493 -108.233 0 0 0 
28 1 1 -19.0834 -23.4201 -114.865 0 0 0 
29 2 1 -15.5559 -24.3592 -115.763 0 0 0 
31 1 1 -18.4978 -22.6849 -111.347 0 0 0 
32 2 1 -21.8874 -22.7434 -109.475 0 0 0 
34 1 1 -17.9123 -21.9497 -107.828 0 0 0 
35 2 1 -14.3848 -22.8889 -108.726 0 0 0 
36 3 1 -10.7976 -23.8598 -107.901 0 0 0 
37 1 1 -17.3268 -21.2146 -104.31 0 0 0 
38 2 1 -20.7163 -21.2731 -102.439 0 0 0 
39 3 1 -24.1623 -21.979 -101.196 0 0 0 
40 1 1 -16.7412 -20.4794 -100.792 0 0 0 
43 1 1 -16.1557 -19.7443 -97.2732 0 0 0 
41 2 1 -13.2138 -21.4186 -101.689 0 0 0 
42 3 1 -9.62656 -22.3895 -100.864 0 0 0 
44 2 1 -19.5452 -19.8027 -95.4019 0 0 0 
45 3 1 -22.9913 -20.5086 -94.1596 0 0 0 
46 1 1 -15.5702 -19.0091 -93.7548 0 0 0 
50 2 1 -18.3742 -18.3324 -88.3651 0 0 0 
51 3 1 -21.8202 -19.0383 -87.1228 0 0 0 
47 2 1 -12.0427 -19.9483 -94.6525 0 0 0 
48 3 1 -8.4555 -20.9191 -93.8274 0 0 0 
49 1 1 -14.9846 -18.2739 -90.2364 0 0 0 
52 1 1 -14.3991 -17.5388 -86.718 0 0 0 
53 2 1 -10.8717 -18.4779 -87.6157 0 0 0 
54 3 1 -7.28443 -19.4488 -86.7906 0 0 0 
56 2 1 -17.2031 -16.8621 -81.3283 0 0 0 
57 3 1 -20.6492 -17.568 -80.0861 0 0 0 
55 1 1 -13.8136 -16.8036 -83.1996 0 0 0 
58 1 1 -13.228 -16.0684 -79.6812 0 0 0 
59 2 1 -9.70059 -17.0076 -80.5789 0 0 0 
60 3 1 -6.11337 -17.9785 -79.7538 0 0 0 
61 1 1 -12.6425 -15.3333 -76.1628 0 0 0 
62 2 1 -16.032 -15.3918 -74.2915 0 0 0 
63 3 1 -19.4781 -16.0977 -73.0493 0 0 0 
65 2 1 -8.52953 -15.5373 -73.5421 0 0 0 
66 3 1 -4.94231 -16.5082 -72.7169 0 0 0 
69 3 1 -18.3071 -14.6273 -66.0125 0 0 0 
64 1 1 -12.057 -14.5981 -72.6444 0 0 0 
67 1 1 -11.4715 -13.8629 -69.126 0 0 0 
68 2 1 -14.861 -13.9214 -67.2547 0 0 0 
71 2 1 -7.35847 -14.067 -66.5053 0 0 0 
75 3 1 -17.136 -13.157 -58.9757 0 0 0 
70 1 1 -10.8859 -13.1278 -65.6076 0 0 0 
73 1 1 -10.3004 -12.3926 -62.0892 0 0 0 
74 2 1 -13.6899 -12.4511 -60.2179 0 0 0 
76 1 1 -9.71487 -11.6575 -58.5708 0 0 0 
77 2 1 -6.18741 -12.5966 -59.4685 0 0 0 
72 3 1 -3.77125 -15.0378 -65.6801 0 0 0 
78 3 1 -2.60019 -13.5675 -58.6433 0 0 0 
81 3 1 -15.9649 -11.6867 -51.9389 0 0 0 
79 1 1 -9.12934 -10.9223 -55.0524 0 0 0 
80 2 1 -12.5189 -10.9808 -53.1811 0 0 0 
82 1 1 -8.54381 -10.1871 -51.534 0 0 0 
85 1 1 -7.95828 -9.45196 -48.0156 0 0 0 
86 2 1 -11.3478 -9.51044 -46.1443 0 0 0 
83 2 1 -5.01635 -11.1263 -52.4317 0 0 0 
84 3 1 -1.42913 -12.0972 -51.6065 0 0 0 
87 3 1 -14.7939 -10.2164 -44.9021 0 0 0 
88 1 1 -7.37275 -8.7168 -44.4972 0 0 0 
91 1 1 -6.78722 -7.98163 -40.9788 0 0 0 
92 2 1 -10.1767 -8.04012 -39.1075 0 0 0 
93 3 1 -13.6228 -8.74604 -37.8652 0 0 0 
94 1 1 -6.20169 -7.24647 -37.4604 0 0 0 
89 2 1 -3.84528 -9.65598 -45.3949 0 0 0 
90 3 1 -0.258066 -10.6268 -44.5697 0 0 0 
95 2 1 -2.67422 -8.18566 -38.3581 0 0 0 
96 3 1 0.912995 -9.15652 -37.5329 0 0 0 
97 1 1 -5.61616 -6.51131 -33.942 0 0 0 
98 2 1 -9.00567 -6.56979 -32.0707 0 0 0 
99 3 1 -12.4517 -7.27571 -30.8284 0 0 0 
100 1 1 -5.03063 -5.77614 -30.4236 0 0 0 
101 2 1 -1.50316 -6.71533 -31.3213 0 0 0 
102 3 1 2.08406 -7.68619 -30.4962 0 0 0 
103 1 1 -4.4451 -5.04098 -26.9052 0 0 0 
104 2 1 -7.83461 -5.09946 -25.0339 0 0 0 
105 3 1 -11.2807 -5.80539 -23.7916 0 0 0 
107 2 1 -0.332099 -5.245 -24.2845 0 0 0 
108 3 1 3.25512 -6.21586 -23.4593 0 0 0 
110 2 1 -6.66355 -3.62914 -17.9971 0 0 0 
111 3 1 -10.1096 -4.33506 -16.7548 0 0 0 
106 1 1 -3.85956 -4.30582 -23.3868 0 0 0 
109 1 1 -3.27403 -3.57065 -19.8684 0 0 0 
112 1 1 -2.6885 -2.83549 -16.35 0 0 0 
113 2 1 0.838961 -3.77467 -17.2477 0 0 0 
114 3 1 4.42618 -4.74554 -16.4225 0 0 0 
116 2 1 -5.49249 -2.15881 -10.9603 0 0 0 
117 3 1 -8.93856 -2.86473 -9.71804 0 0 0 
115 1 1 -2.10297 -2.10033 -12.8316 0 0 0 
118 1 1 -1.51744 -1.36516 -9.31319 0 0 0 
119 2 1 2.01002 -2.30435 -10.2109 0 0 0 
121 1 1 -0.931911 -0.629998 -5.79479 0 0 0 
120 3 1 5.59724 -3.27521 -9.38575 0 0 0 
123 3 1 -7.7675 -1.3944 -2.68124 0 0 0 
129 3 1 -6.59644 0.075921 4.35556 0 0 0 
122 2 1 -4.32143 -0.688482 -3.92353 0 0 0 
124 1 1 -0.34638 0.105164 -2.27638 0 0 0 
125 2 1 3.18108 -0.83402 -3.17409 0 0 0 
127 1 1 0.23915 0.840328 1.24202 0 0 0 
128 2 1 -3.15037 0.781844 3.11327 0 0 0 
130 1 1 0.82468 1.57549 4.76042 0 0 0 
131 2 1 4.35215 0.636306 3.86271 0 0 0 
126 3 1 6.7683 -1.80488 -2.34895 0 0 0 
132 3 1 7.93936 -0.334554 4.68786 0 0 0 
135 3 1 -5.42537 1.54625 11.3924 0 0 0 
133 1 1 1.41021 2.31066 8.27882 0 0 0 
134 2 1 -1.97931 2.25217 10.1501 0 0 0 
136 1 1 1.99574 3.04582 11.7972 0 0 0 
137 2 1 5.52321 2.10663 10.8995 0 0 0 
138 3 1 9.11042 1.13577 11.7247 0 0 0 
139 1 1 2.58127 3.78098 15.3156 0 0 0 
140 2 1 -0.808244 3.7225 17.1869 0 0 0 
141 3 1 -4.25431 3.01658 18.4292 0 0 0 
142 1 1 3.1668 4.51615 18.834 0 0 0 
143 2 1 6.69427 3.57696 17.9363 0 0 0 
144 3 1 10.2815 2.6061 18.7614 0 0 0 
149 2 1 7.86533 5.04729 24.9731 0 0 0 
145 1 1 3.75233 5.25131 22.3524 0 0 0 
146 2 1 0.362816 5.19283 24.2237 0 0 0 
147 3 1 -3.08325 4.4869 25.466 0 0 0 
150 3 1 11.4525 4.07643 25.7983 0 0 0 
148 1 1 4.33786 5.98647 25.8708 0 0 0 
151 1 1 4.9234 6.72164 29.3892 0 0 0 
152 2 1 1.53388 6.66315 31.2605 0 0 0 
153 3 1 -1.91219 5.95723 32.5028 0 0 0 
154 1 1 5.50893 7.4568 32.9076 0 0 0 
155 2 1 9.03639 6.51761 32.0099 0 0 0 
156 3 1 12.6236 5.54675 32.8351 0 0 0 
158 2 1 2.70494 8.13348 38.2973 0 0 0 
159 3 1 -0.74113 7.42756 39.5396 0 0 0 
164 2 1 3.876 9.60381 45.3341 0 0 0 
157 1 1 6.09446 8.19196 36.426 0 0 0 
160 1 1 6.67999 8.92713 39.9444 0 0 0 
161 2 1 10.2074 7.98794 39.0467 0 0 0 
162 3 1 13.7947 7.01708 39.8719 0 0 0 
163 1 1 7.26552 9.66229 43.4628 0 0 0 
165 3 1 0.429931 8.89788 46.5764 0 0 0 
170 2 1 5.04706 11.0741 52.3709 0 0 0 
171 3 1 1.60099 10.3682 53.6132 0 0 0 
166 1 1 7.85105 10.3974 46.9812 0 0 0 
167 2 1 11.3785 9.45827 46.0835 0 0 0 
168 3 1 14.9657 8.48741 46.9087 0 0 0 
169 1 1 8.43658 11.1326 50.4996 0 0 0 
172 1 1 9.02211 11.8678 54.018 0 0 0 
173 2 1 12.5496 10.9286 53.1203 0 0 0 
174 3 1 16.1368 9.95773 53.9455 0 0 0 
177 3 1 2.77205 11.8385 60.65 0 0 0 
175 1 1 9.60764 12.6029 57.5364 0 0 0 
176 2 1 6.21812 12.5445 59.4077 0 0 0 
178 1 1 10.1932 13.3381 61.0548 0 0 0 
179 2 1 13.7206 12.3989 60.1571 0 0 0 
181 1 1 10.7787 14.0733 64.5732 0 0 0 
180 3 1 17.3078 11.4281 60.9823 0 0 0 
183 3 1 3.94312 13.3089 67.6868 0 0 0 
182 2 1 7.38919 14.0148 66.4445 0 0 0 
184 1 1 11.3642 14.8084 68.0916 0 0 0 
185 2 1 14.8917 13.8692 67.1939 0 0 0 
189 3 1 5.11418 14.7792 74.7236 0 0 0 
186 3 1 18.4789 12.8984 68.0191 0 0 0 
192 3 1 19.65 14.3687 75.0559 0 0 0 
187 1 1 11.9498 15.5436 71.61 0 0 0 
188 2 1 8.56025 15.4851 73.4813 0 0 0 
190 1 1 12.5353 16.2788 75.1284 0 0 0 
191 2 1 16.0628 15.3396 74.2307 0 0 0 
193 1 1 13.1208 17.0139 78.6468 0 0 0 
194 2 1 9.73131 16.9554 80.5181 0 0 0 
195 3 1 6.28524 16.2495 81.7604 0 0 0 
196 1 1 13.7064 17.7491 82.1652 0 0 0 
199 1 1 14.2919 18.4842 85.6836 0 0 0 
197 2 1 17.2338 16.8099 81.2675 0 0 0 
198 3 1 20.821 15.839 82.0927 0 0 0 
200 2 1 10.9024 18.4258 87.5549 0 0 0 
201 3 1 7.4563 17.7198 88.7972 0 0 0 
202 1 1 14.8774 19.2194 89.202 0 0 0 
206 2 1 12.0734 19.8961 94.5917 0 0 0 
207 3 1 8.62736 19.1902 95.834 0 0 0 
203 2 1 18.4049 18.2802 88.3043 0 0 0 
204 3 1 21.9921 17.3094 89.1295 0 0 0 
205 1 1 15.4629 19.9546 92.7204 0 0 0 
209 2 1 19.5759 19.7506 95.3411 0 0 0 
212 2 1 13.2445 21.3664 101.628 0 0 0 
213 3 1 9.79842 20.6605 102.871 0 0 0 
208 1 1 16.0485 20.6897 96.2388 0 0 0 
210 3 1 23.1632 18.7797 96.1663 0 0 0 
211 1 1 16.634 21.4249 99.7572 0 0 0 
214 1 1 17.2195 22.1601 103.276 0 0 0 
215 2 1 20.747 21.2209 102.378 0 0 0 
216 3 1 24.3342 20.25 103.203 0 0 0 
218 2 1 14.4155 22.8367 108.665 0 0 0 
219 3 1 10.9695 22.1308 109.907 0 0 0 
217 1 1 17.8051 22.8952 106.794 0 0 0 
220 1 1 18.3906 23.6304 110.312 0 0 0 
221 2 1 21.9181 22.6912 109.415 0 0 0 
223 1 1 18.9761 24.3656 113.831 0 0 0 
224 2 1 15.5866 24.3071 115.702 0 0 0 
222 3 1 25.5053 21.7203 110.24 0 0 0 
225 3 1 12.1405 23.6012 116.944 0 0 0 
231 3 1 13.3116 25.0715 123.981 0 0 0 
226 1 1 19.5617 25.1007 117.349 0 0 0 
227 2 1 23.0891 24.1615 116.451 0 0 0 
228 3 1 26.6763 23.1907 117.277 0 0 0 
234 3 1 27.8474 24.661 124.313 0 0 0 
229 1 1 20.1472 25.8359 120.868 0 0 0 
230 2 1 16.7577 25.7774 122.739 0 0 0 
232 1 1 20.7327 26.571 124.386 0 0 0 
233 2 1 24.2602 25.6319 123.488 0 0 0 
237 3 1 14.4827 26.5418 131.018 0 0 0 
235 1 1 21.3182 27.3062 127.904 0 0 0 
236 2 1 17.9287 27.2477 129.776 0 0 0 
238 1 1 21.9038 28.0414 131.423 0 0 0 
241 1 1 22.4893 28.7765 134.941 0 0 0 
239 2 1 25.4312 27.1022 130.525 0 0 0 
240 3 1 29.0185 26.1313 131.35 0 0 0 
242 2 1 19.0998 28.7181 136.812 0 0 0 
243 3 1 15.6537 28.0121 138.055 0 0 0 
244 1 1 23.0748 29.5117 138.46 0 0 0 
247 1 1 23.6604 30.2469 141.978 0 0 0 
248 2 1 20.2709 30.1884 143.849 0 0 0 
249 3 1 16.8248 29.4825 145.091 0 0 0 
250 1 1 24.2459 30.982 145.496 0 0 0 
245 2 1 26.6023 28.5725 137.562 0 0 0 
246 3 1 30.1895 27.6017 138.387 0 0 0 
251 2 1 27.7734 30.0428 144.599 0 0 0 
252 3 1 31.3606 29.072 145.424 0 0 0 
ITEM: TIMESTEP
100000
ITEM: NUMBER OF ATOMS
252
ITEM: BOX BOUNDS pp pp pp
-197.078 197.078
-197.078 197.078
-197.078 197.078
ITEM: ATOMS id type mol x y z ix iy iz 
9 3 1 -76.2141 -10.1826 -117.728 0 0 0 
5 2 1 -78.8129 -2.63876 -117.106 0 0 0 
6 3 1 -80.7455 -4.85339 -119.071 0 0 0 
4 1 1 -76.0625 0.226709 -116.023 0 0 0 
8 2 1 -75.6922 -7.02849 -115.456 0 0 0 
7 1 1 -74.4903 -3.1565 -114.915 0 0 0 
3 3 1 -72.1713 2.58878 -122.923 0 0 0 
2 2 1 -73.4371 2.85754 -119.349 0 0 0 
1 1 1 -75.894 4.08749 -116.357 0 0 0 
12 3 1 -75.4509 -11.2198 -110.309 0 0 0 
15 3 1 -62.5947 -8.08981 -115.274 0 0 0 
14 2 1 -65.1675 -7.49335 -112.644 0 0 0 
11 2 1 -73.738 -8.1768 -110.695 0 0 0 
18 3 1 -71.276 -14.0969 -105.63 0 0 0 
16 1 1 -67.1605 -8.58419 -108.36 0 0 0 
17 2 1 -69.2573 -11.448 -106.308 0 0 0 
21 3 1 -66.7374 -16.5863 -102.989 0 0 0 
10 1 1 -72.0605 -5.40943 -113.208 0 0 0 
13 1 1 -68.9027 -7.06655 -111.334 0 0 0 
19 1 1 -64.8839 -9.7937 -105.491 0 0 0 
22 1 1 -61.9253 -10.579 -102.885 0 0 0 
25 1 1 -60.3378 -10.8332 -99.5184 0 0 0 
20 2 1 -66.2695 -13.2094 -103.846 0 0 0 
23 2 1 -58.1355 -12.2325 -103.178 0 0 0 
24 3 1 -56.7313 -15.7033 -104.322 0 0 0 
31 1 1 -54.8071 -10.5376 -94.0894 0 0 0 
26 2 1 -62.3758 -8.48245 -96.9029 0 0 0 
28 1 1 -57.8203 -10.9514 -96.5519 0 0 0 
35 2 1 -52.306 -12.0147 -88.1297 0 0 0 
37 1 1 -48.7751 -10.3504 -89.2491 0 0 0 
34 1 1 -51.8668 -10.6969 -91.5901 0 0 0 
32 2 1 -51.8024 -8.17481 -95.1695 0 0 0 
38 2 1 -45.5525 -8.79134 -90.6579 0 0 0 
33 3 1 -48.4494 -6.35691 -94.8368 0 0 0 
41 2 1 -42.3937 -9.28241 -87.1301 0 0 0 
39 3 1 -43.4248 -6.21745 -91.9603 0 0 0 
27 3 1 -62.2638 -6.32201 -93.8064 0 0 0 
30 3 1 -62.14 -11.5912 -91.3144 0 0 0 
29 2 1 -59.2431 -10.8695 -93.2641 0 0 0 
57 3 1 -27.9564 -12.9299 -72.8214 0 0 0 
36 3 1 -55.0622 -12.5094 -85.93 0 0 0 
40 1 1 -46.2274 -10.2975 -86.2421 0 0 0 
43 1 1 -44.2399 -10.9109 -82.8892 0 0 0 
46 1 1 -42.4838 -10.8461 -79.3978 0 0 0 
50 2 1 -36.8782 -12.4107 -77.8779 0 0 0 
45 3 1 -38.2226 -15.6349 -83.8408 0 0 0 
44 2 1 -40.725 -12.802 -83.0419 0 0 0 
51 3 1 -34.2568 -12.5424 -80.5904 0 0 0 
54 3 1 -32.4138 -16.8771 -76.7134 0 0 0 
42 3 1 -39.8424 -6.96807 -86.6302 0 0 0 
56 2 1 -31.3391 -13.6962 -70.9838 0 0 0 
59 2 1 -30.0013 -13.8489 -66.2189 0 0 0 
60 3 1 -26.472 -14.555 -66.1437 0 0 0 
58 1 1 -33.8631 -14.1617 -67.2524 0 0 0 
61 1 1 -33.5657 -15.1669 -63.4286 0 0 0 
48 3 1 -45.1034 -5.67655 -74.3561 0 0 0 
47 2 1 -42.8605 -8.19859 -76.3014 0 0 0 
49 1 1 -40.2459 -12.1985 -76.5808 0 0 0 
52 1 1 -37.5647 -12.769 -73.9123 0 0 0 
53 2 1 -34.7367 -14.4672 -75.3575 0 0 0 
55 1 1 -35.3946 -13.4016 -70.7875 0 0 0 
66 3 1 -29.6775 -21.7761 -55.6204 0 0 0 
69 3 1 -35.1626 -9.77442 -54.3433 0 0 0 
65 2 1 -30.2087 -18.7665 -58.0015 0 0 0 
62 2 1 -36.6846 -15.7245 -60.8234 0 0 0 
70 1 1 -30.8326 -15.7395 -52.258 0 0 0 
64 1 1 -32.2646 -16.0741 -59.8624 0 0 0 
67 1 1 -31.9132 -15.3206 -55.9609 0 0 0 
68 2 1 -32.191 -11.4776 -54.7127 0 0 0 
71 2 1 -28.0722 -13.8622 -50.5743 0 0 0 
63 3 1 -38.0122 -15.8644 -57.5565 0 0 0 
72 3 1 -24.6669 -12.233 -50.4216 0 0 0 
75 3 1 -35.5099 -19.128 -44.0299 0 0 0 
80 2 1 -27.5283 -20.6626 -39.8112 0 0 0 
74 2 1 -32.5829 -18.8473 -46.005 0 0 0 
77 2 1 -24.2014 -19.0944 -47.3823 0 0 0 
78 3 1 -20.5431 -18.7187 -48.4254 0 0 0 
76 1 1 -27.7426 -17.6767 -45.8142 0 0 0 
73 1 1 -30.1644 -16.9715 -48.7257 0 0 0 
79 1 1 -25.9004 -18.0951 -42.5046 0 0 0 
81 3 1 -30.1104 -20.7753 -37.0408 0 0 0 
84 3 1 -27.4001 -17.9666 -33.0715 0 0 0 
83 2 1 -25.07 -18.4275 -35.6653 0 0 0 
87 3 1 -18.2848 -23.1488 -35.1383 0 0 0 
86 2 1 -18.8579 -19.6485 -35.25 0 0 0 
82 1 1 -23.4685 -18.0158 -39.5202 0 0 0 
85 1 1 -20.1251 -17.2284 -37.6251 0 0 0 
88 1 1 -16.7478 -15.8864 -36.0038 0 0 0 
89 2 1 -14.3518 -13.3108 -38.3588 0 0 0 
90 3 1 -12.9934 -10.1956 -39.8199 0 0 0 
93 3 1 -10.0965 -16.2098 -27.1138 0 0 0 
92 2 1 -13.0714 -15.9489 -29.6898 0 0 0 
91 1 1 -14.33 -14.6735 -33.2159 0 0 0 
94 1 1 -11.6341 -12.28 -31.5336 0 0 0 
97 1 1 -9.55353 -10.6893 -28.6716 0 0 0 
95 2 1 -10.7429 -8.93698 -33.6378 0 0 0 
96 3 1 -7.97808 -6.58511 -34.8029 0 0 0 
105 3 1 0.882042 -14.9047 -24.3275 0 0 0 
104 2 1 -2.56217 -14.0944 -22.7453 0 0 0 
99 3 1 -8.49898 -3.44628 -26.1578 0 0 0 
98 2 1 -8.04012 -7.08673 -27.5457 0 0 0 
100 1 1 -7.70137 -10.709 -25.2278 0 0 0 
101 2 1 -7.91282 -7.69483 -22.5292 0 0 0 
103 1 1 -5.58069 -11.4012 -22.083 0 0 0 
102 3 1 -8.4376 -4.09046 -21.2749 0 0 0 
106 1 1 -4.39336 -11.8682 -18.2346 0 0 0 
107 2 1 -6.36364 -10.9805 -15.0865 0 0 0 
108 3 1 -9.45004 -10.1075 -13.7893 0 0 0 
111 3 1 5.31226 -12.2554 -15.2554 0 0 0 
110 2 1 1.89214 -11.8074 -14.4093 0 0 0 
115 1 1 -0.506664 -14.0877 -7.5836 0 0 0 
116 2 1 3.00887 -12.7684 -6.05359 0 0 0 
117 3 1 6.50055 -13.2644 -6.50518 0 0 0 
109 1 1 -2.08889 -12.3718 -15.0911 0 0 0 
112 1 1 -1.57478 -13.7454 -11.3586 0 0 0 
113 2 1 -2.92973 -17.4483 -10.7674 0 0 0 
118 1 1 -0.84388 -14.8033 -3.83539 0 0 0 
121 1 1 0.523579 -15.582 -0.322133 0 0 0 
124 1 1 3.31881 -17.0575 1.89466 0 0 0 
122 2 1 -0.729205 -15.0836 3.66886 0 0 0 
125 2 1 5.84953 -19.71 0.168799 0 0 0 
127 1 1 6.25717 -17.6474 4.39148 0 0 0 
126 3 1 9.42984 -19.4554 0.548088 0 0 0 
114 3 1 -3.08177 -21.2302 -11.0119 0 0 0 
120 3 1 -7.51769 -15.5657 -0.596402 0 0 0 
119 2 1 -3.9931 -15.0109 -1.37937 0 0 0 
123 3 1 -3.07504 -13.898 6.3966 0 0 0 
132 3 1 16.1314 -16.5127 6.62339 0 0 0 
131 2 1 12.6863 -17.3517 7.41507 0 0 0 
130 1 1 8.89604 -18.6305 7.14722 0 0 0 
133 1 1 11.0171 -20.0297 10.2565 0 0 0 
136 1 1 13.2388 -20.9332 13.4052 0 0 0 
141 3 1 19.5071 -27.0914 16.8018 0 0 0 
140 2 1 17.6284 -24.05 17.7925 0 0 0 
129 3 1 1.8898 -19.2468 10.0029 0 0 0 
128 2 1 4.65488 -18.5081 7.896 0 0 0 
134 2 1 10.7036 -23.4879 10.5963 0 0 0 
135 3 1 11.7271 -26.3771 8.48558 0 0 0 
139 1 1 15.4069 -21.0493 16.6243 0 0 0 
138 3 1 14.1435 -14.2425 14.8964 0 0 0 
137 2 1 14.1901 -17.712 14.8653 0 0 0 
142 1 1 17.0098 -19.2686 19.8145 0 0 0 
145 1 1 18.1152 -16.8647 22.6268 0 0 0 
147 3 1 21.1199 -18.0437 29.6832 0 0 0 
143 2 1 17.5779 -15.3598 18.9114 0 0 0 
148 1 1 19.8827 -13.595 23.632 0 0 0 
146 2 1 19.0593 -17.9229 26.5075 0 0 0 
151 1 1 21.191 -10.9544 26.0908 0 0 0 
152 2 1 22.4014 -12.1532 29.6419 0 0 0 
153 3 1 22.4768 -13.6355 32.8289 0 0 0 
150 3 1 21.261 -9.26302 17.6841 0 0 0 
144 3 1 16.453 -11.6053 18.7318 0 0 0 
149 2 1 20.9001 -10.9202 20.9458 0 0 0 
156 3 1 17.4701 -2.34878 24.1996 0 0 0 
155 2 1 19.7993 -3.926 26.9083 0 0 0 
154 1 1 21.6095 -7.41714 27.9622 0 0 0 
157 1 1 23.3569 -4.87381 30.3582 0 0 0 
160 1 1 25.9086 -3.19525 32.8252 0 0 0 
158 2 1 25.4528 -7.34527 32.8006 0 0 0 
159 3 1 26.2944 -9.95572 35.4554 0 0 0 
164 2 1 31.7561 0.602427 34.6857 0 0 0 
165 3 1 34.3827 -0.0477446 32.4681 0 0 0 
162 3 1 31.179 -8.50075 33.5786 0 0 0 
161 2 1 29.001 -5.35378 33.8966 0 0 0 
163 1 1 27.7928 -0.651275 34.9534 0 0 0 
166 1 1 28.7078 1.18962 38.1396 0 0 0 
169 1 1 28.7442 3.26668 41.2247 0 0 0 
170 2 1 25.9169 6.075 42.0966 0 0 0 
167 2 1 32.1532 -0.263012 39.6932 0 0 0 
168 3 1 34.644 -1.23051 42.0232 0 0 0 
172 1 1 30.0548 4.41371 44.7386 0 0 0 
173 2 1 34.151 4.50391 44.6372 0 0 0 
174 3 1 37.4363 5.5111 43.5235 0 0 0 
171 3 1 22.0555 5.9243 41.554 0 0 0 
175 1 1 30.6306 5.20822 48.5025 0 0 0 
182 2 1 24.7706 7.41051 56.6946 0 0 0 
178 1 1 30.0361 5.9395 52.2067 0 0 0 
181 1 1 28.7783 7.49661 55.6738 0 0 0 
176 2 1 34.288 4.26925 49.7307 0 0 0 
179 2 1 33.3163 6.78526 54.388 0 0 0 
177 3 1 36.9553 2.18281 50.1354 0 0 0 
180 3 1 36.9292 7.50401 54.8181 0 0 0 
183 3 1 25.1737 5.75313 59.707 0 0 0 
189 3 1 22.0892 10.0142 65.3664 0 0 0 
187 1 1 27.6745 11.5685 62.1091 0 0 0 
188 2 1 23.8734 12.4308 62.8534 0 0 0 
184 1 1 28.7179 9.55894 58.982 0 0 0 
185 2 1 32.3211 10.4081 60.8481 0 0 0 
186 3 1 34.5846 11.1538 63.8999 0 0 0 
190 1 1 28.0727 13.4947 65.4841 0 0 0 
191 2 1 30.9083 16.3551 65.7329 0 0 0 
195 3 1 21.0274 12.6785 70.6937 0 0 0 
194 2 1 24.4086 13.9337 71.3237 0 0 0 
193 1 1 27.7587 14.93 69.1379 0 0 0 
196 1 1 28.1639 16.8791 72.5773 0 0 0 
199 1 1 28.3093 18.1083 76.226 0 0 0 
197 2 1 30.8435 19.6251 72.5333 0 0 0 
192 3 1 32.5416 19.782 65.5215 0 0 0 
198 3 1 34.2478 20.5323 72.0463 0 0 0 
201 3 1 21.6228 17.016 80.3471 0 0 0 
202 1 1 29.1687 19.4355 79.621 0 0 0 
200 2 1 25.0723 16.9534 78.5014 0 0 0 
205 1 1 30.1288 20.5806 83.1839 0 0 0 
206 2 1 27.961 20.8643 86.4614 0 0 0 
208 1 1 32.0629 21.7411 86.2031 0 0 0 
203 2 1 32.5337 20.7604 79.5532 0 0 0 
204 3 1 35.7998 21.796 78.0482 0 0 0 
210 3 1 38.4779 25.9282 84.7156 0 0 0 
209 2 1 35.6837 23.5814 85.7191 0 0 0 
207 3 1 27.5328 21.2694 89.9681 0 0 0 
212 2 1 31.2394 21.2944 93.3033 0 0 0 
213 3 1 31.2311 19.9193 96.585 0 0 0 
211 1 1 33.1553 22.4227 89.9818 0 0 0 
214 1 1 35.2104 23.9248 92.7656 0 0 0 
215 2 1 38.6511 24.9474 90.85 0 0 0 
216 3 1 40.9888 26.1927 88.6487 0 0 0 
217 1 1 38.0147 25.7382 94.8168 0 0 0 
221 2 1 41.9164 30.8537 93.3143 0 0 0 
222 3 1 41.0431 34.1368 91.7421 0 0 0 
228 3 1 46.7345 38.6524 93.9586 0 0 0 
234 3 1 51.7887 40.9065 91.2648 0 0 0 
252 3 1 72.9649 55.402 87.0922 0 0 0 
250 1 1 68.4571 52.4739 91.9282 0 0 0 
251 2 1 70.4349 53.3761 88.603 0 0 0 
219 3 1 35.9823 27.2533 101.493 0 0 0 
220 1 1 41.1574 27.747 95.6296 0 0 0 
218 2 1 37.7788 25.1437 98.867 0 0 0 
223 1 1 44.4598 29.3614 96.9958 0 0 0 
224 2 1 45.7392 29.3454 100.827 0 0 0 
226 1 1 47.352 31.8795 96.3675 0 0 0 
230 2 1 53.9522 31.0914 98.3584 0 0 0 
229 1 1 50.8237 33.2665 97.047 0 0 0 
232 1 1 53.5618 36.0144 96.9064 0 0 0 
227 2 1 47.2878 34.9254 94.6874 0 0 0 
233 2 1 52.7473 38.9329 94.1968 0 0 0 
235 1 1 56.9635 38.0148 97.2268 0 0 0 
238 1 1 59.8793 40.4951 96.0208 0 0 0 
236 2 1 59.6512 37.6347 100.281 0 0 0 
241 1 1 62.5585 43.257 95.6449 0 0 0 
242 2 1 64.8946 44.9339 98.4758 0 0 0 
243 3 1 65.8182 43.9997 101.769 0 0 0 
240 3 1 60.1076 43.7262 89.4886 0 0 0 
239 2 1 59.6331 41.5279 92.1601 0 0 0 
244 1 1 64.639 45.8687 93.8909 0 0 0 
245 2 1 66.04 45.4357 90.1351 0 0 0 
246 3 1 67.7076 44.0157 87.2394 0 0 0 
247 1 1 66.5082 49.3386 93.3241 0 0 0 
248 2 1 67.0486 51.5136 96.5912 0 0 0 
249 3 1 67.1415 55.1586 97.8444 0 0 0 
225 3 1 46.2037 31.8284 103.721 0 0 0 
231 3 1 55.2532 27.5725 99.3084 0 0 0 
237 3 1 62.5468 36.6408 102.269 0 0 0 
ITEM: TIMESTEP
200000
ITEM: NUMBER OF ATOMS
252
ITEM: BOX BOUNDS pp pp pp
-197.078 197.078
-197.078 197.078
-197.078 197.078
ITEM: ATOMS id type mol x y z ix iy iz 
42 3 1 -33.1423 6.16682 -25.0697 0 0 0 
39 3 1 -38.1018 3.65847 -26.0793 0 0 0 
50 2 1 -27.8532 9.36237 -20.9787 0 0 0 
51 3 1 -29.8554 12.0938 -22.8453 0 0 0 
60 3 1 -30.0549 20.0402 -20.674 0 0 0 
59 2 1 -26.7236 18.6972 -22.1178 0 0 0 
66 3 1 -15.4948 27.5348 -23.3681 0 0 0 
27 3 1 -43.1489 -10.7099 -15.3594 0 0 0 
36 3 1 -43.789 1.15732 -24.0187 0 0 0 
35 2 1 -41.9238 -1.99421 -23.0479 0 0 0 
38 2 1 -38.0277 0.646677 -24.2765 0 0 0 
41 2 1 -34.0698 3.53926 -22.5291 0 0 0 
209 2 1 27.4424 -2.85561 -16.434 0 0 0 
204 3 1 34.5386 -9.67385 -20.8695 0 0 0 
207 3 1 32.016 -4.32286 -20.4058 0 0 0 
203 2 1 35.298 -9.09709 -17.4081 0 0 0 
206 2 1 33.1561 -3.97793 -17.1321 0 0 0 
205 1 1 33.03 -6.4413 -13.967 0 0 0 
208 1 1 29.9378 -4.05002 -13.5088 0 0 0 
198 3 1 33.9864 -14.4684 -4.59375 0 0 0 
34 1 1 -40.8395 -3.578 -19.4568 0 0 0 
29 2 1 -48.2947 -3.79053 -19.6262 0 0 0 
31 1 1 -43.8457 -4.92016 -17.7051 0 0 0 
30 3 1 -47.885 -0.832153 -21.3237 0 0 0 
37 1 1 -37.8161 -1.81526 -21.0728 0 0 0 
40 1 1 -34.2525 -0.157341 -21.348 0 0 0 
43 1 1 -30.4179 0.58048 -20.7313 0 0 0 
46 1 1 -27.3367 2.63568 -19.8454 0 0 0 
45 3 1 -25.0127 -2.639 -24.1386 0 0 0 
48 3 1 -23.7008 -2.08211 -17.5746 0 0 0 
47 2 1 -24.4427 1.53503 -17.9737 0 0 0 
49 1 1 -25.6261 6.12145 -20.1242 0 0 0 
44 2 1 -27.528 -2.10399 -21.3385 0 0 0 
210 3 1 26.0779 -0.669963 -18.85 0 0 0 
213 3 1 22.5371 1.45 -16.1174 0 0 0 
212 2 1 24.3386 -0.889849 -13.5478 0 0 0 
54 3 1 -15.8106 9.90311 -18.8543 0 0 0 
53 2 1 -19.3651 9.67563 -18.6656 0 0 0 
56 2 1 -19.638 14.4817 -23.5624 0 0 0 
52 1 1 -23.0964 9.01388 -20.1571 0 0 0 
55 1 1 -22.3937 12.7817 -20.9317 0 0 0 
57 3 1 -18.7799 13.6263 -26.9486 0 0 0 
62 2 1 -25.0126 22.9898 -20.8157 0 0 0 
63 3 1 -26.9576 26.1951 -21.8927 0 0 0 
58 1 1 -23.3546 16.5681 -21.3728 0 0 0 
64 1 1 -20.5373 23.5131 -19.3894 0 0 0 
61 1 1 -22.0102 20.2034 -20.6363 0 0 0 
65 2 1 -18.3576 25.7552 -21.6588 0 0 0 
67 1 1 -19.5927 26.3574 -17.2047 0 0 0 
69 3 1 -20.4628 32.3267 -21.0732 0 0 0 
68 2 1 -19.0869 29.7295 -19.2155 0 0 0 
72 3 1 -19.2672 35.7717 -16.5285 0 0 0 
201 3 1 40.3725 -9.35965 -18.3755 0 0 0 
195 3 1 44.4996 -16.3497 -15.0608 0 0 0 
186 3 1 53.5955 -24.2376 -3.36268 0 0 0 
8 2 1 -70.1116 -8.2657 -4.315 0 0 0 
10 1 1 -65.33 -9.21888 -3.4277 0 0 0 
13 1 1 -62.8285 -7.88788 -6.28612 0 0 0 
16 1 1 -59.0412 -8.17006 -7.65555 0 0 0 
14 2 1 -63.4758 -5.5522 -9.46824 0 0 0 
9 3 1 -69.8846 -8.21088 -7.79637 0 0 0 
17 2 1 -55.7633 -8.19483 -5.16609 0 0 0 
19 1 1 -56.3973 -8.58102 -10.4198 0 0 0 
22 1 1 -53.3917 -8.26395 -12.769 0 0 0 
32 2 1 -40.4067 -5.84343 -15.7838 0 0 0 
33 3 1 -39.1271 -8.38902 -13.449 0 0 0 
26 2 1 -47.0493 -10.4266 -15.0661 0 0 0 
200 2 1 38.3728 -11.7972 -16.2304 0 0 0 
202 1 1 35.5716 -9.28125 -13.3272 0 0 0 
197 2 1 36.3414 -13.802 -7.2758 0 0 0 
199 1 1 37.8076 -12.1672 -12.1676 0 0 0 
196 1 1 39.59 -14.468 -9.65441 0 0 0 
193 1 1 42.4651 -16.234 -7.89911 0 0 0 
194 2 1 43.5822 -15.6414 -11.6968 0 0 0 
192 3 1 38.9633 -16.7473 -1.41873 0 0 0 
190 1 1 44.9307 -17.8425 -5.29327 0 0 0 
191 2 1 41.4004 -16.4059 -3.94603 0 0 0 
189 3 1 41.2659 -22.7136 -5.04313 0 0 0 
188 2 1 43.7685 -21.7443 -2.57449 0 0 0 
15 3 1 -64.7323 -2.72425 -10.8874 0 0 0 
24 3 1 -54.692 -4.49907 -18.6818 0 0 0 
25 1 1 -50.2344 -8.05614 -14.8308 0 0 0 
20 2 1 -57.6067 -11.0738 -13.3383 0 0 0 
23 2 1 -54.446 -6.01663 -15.437 0 0 0 
21 3 1 -58.3858 -13.8179 -15.3243 0 0 0 
28 1 1 -47.3236 -6.23652 -16.4833 0 0 0 
219 3 1 18.3049 3.9894 -14.616 0 0 0 
211 1 1 27.3967 -1.9326 -11.4807 0 0 0 
217 1 1 22.2257 2.88743 -8.75324 0 0 0 
214 1 1 25.1783 0.39868 -9.18523 0 0 0 
218 2 1 20.3059 4.98136 -11.6898 0 0 0 
215 2 1 25.8573 1.74327 -5.403 0 0 0 
220 1 1 19.1837 4.63288 -7.1281 0 0 0 
225 3 1 18.8009 13.6421 -7.88345 0 0 0 
224 2 1 16.5809 11.0476 -8.03725 0 0 0 
234 3 1 4.77911 10.9054 -12.7342 0 0 0 
70 1 1 -19.1218 28.483 -14.019 0 0 0 
71 2 1 -18.7662 32.4615 -14.7501 0 0 0 
74 2 1 -19.0504 33.9141 -9.58842 0 0 0 
73 1 1 -18.8263 29.8922 -10.3398 0 0 0 
77 2 1 -16.991 32.8285 -4.89593 0 0 0 
76 1 1 -18.6275 30.0436 -6.50595 0 0 0 
243 3 1 -0.526477 26.3532 -8.69948 0 0 0 
249 3 1 -1.68355 32.9656 -6.24848 0 0 0 
75 3 1 -18.1012 37.6048 -9.52513 0 0 0 
185 2 1 50.9181 -22.2854 -2.38727 0 0 0 
181 1 1 51.6331 -18.788 3.71801 0 0 0 
182 2 1 54.4228 -20.9975 1.62071 0 0 0 
183 3 1 58.0133 -21.4876 1.43383 0 0 0 
7 1 1 -68.3059 -10.217 -1.21625 0 0 0 
4 1 1 -69.7438 -11.9714 1.944 0 0 0 
1 1 1 -72.4879 -12.7068 4.71049 0 0 0 
2 2 1 -68.8737 -14.3072 5.52903 0 0 0 
5 2 1 -66.0033 -13.2556 1.30228 0 0 0 
3 3 1 -66.5711 -16.8753 4.60529 0 0 0 
12 3 1 -58.7011 -11.6279 -1.61357 0 0 0 
11 2 1 -61.4476 -9.55826 -2.32222 0 0 0 
6 3 1 -62.6353 -13.3906 2.15416 0 0 0 
18 3 1 -53.2643 -9.38696 -2.40136 0 0 0 
187 1 1 46.8897 -19.0647 -2.21776 0 0 0 
184 1 1 49.8023 -19.5064 0.448647 0 0 0 
180 3 1 45.8185 -13.6205 6.65093 0 0 0 
221 2 1 18.1447 4.30052 -3.15063 0 0 0 
216 3 1 27.5145 3.95204 -3.14143 0 0 0 
222 3 1 16.9024 5.76352 -0.204351 0 0 0 
96 3 1 -7.99719 14.3492 2.4915 0 0 0 
95 2 1 -11.1094 13.7845 4.21571 0 0 0 
94 1 1 -14.1796 14.9256 6.73193 0 0 0 
229 1 1 9.43764 10.6064 -5.99766 0 0 0 
230 2 1 7.12065 10.644 -2.45909 0 0 0 
232 1 1 6.48256 12.9987 -6.35961 0 0 0 
233 2 1 5.07479 13.0977 -9.86725 0 0 0 
223 1 1 16.3063 7.09927 -6.84312 0 0 0 
227 2 1 10.7325 7.67954 -2.715 0 0 0 
226 1 1 12.8688 8.68598 -6.10321 0 0 0 
88 1 1 -16.5551 22.2609 5.77421 0 0 0 
85 1 1 -17.458 25.532 3.84475 0 0 0 
91 1 1 -15.5711 18.5671 6.68506 0 0 0 
237 3 1 1.02689 19.3848 -12.1024 0 0 0 
241 1 1 -1.71243 20.6601 -4.37683 0 0 0 
242 2 1 -1.83038 23.4565 -7.23736 0 0 0 
239 2 1 0.782109 18.0991 -0.767326 0 0 0 
236 2 1 2.5262 16.9407 -9.52579 0 0 0 
235 1 1 3.62256 15.4051 -6.03736 0 0 0 
238 1 1 0.894876 17.8377 -4.87577 0 0 0 
79 1 1 -18.8482 29.4899 -2.68548 0 0 0 
81 3 1 -23.7883 33.4936 0.298059 0 0 0 
82 1 1 -18.539 28.1584 0.943241 0 0 0 
80 2 1 -20.7482 31.6508 -0.546646 0 0 0 
83 2 1 -19.3548 29.6274 4.69114 0 0 0 
247 1 1 -5.29626 27.1012 -2.31587 0 0 0 
248 2 1 -3.61556 30.2526 -4.49212 0 0 0 
250 1 1 -7.67366 29.709 -0.802292 0 0 0 
245 2 1 -6.93341 23.2734 -0.0682371 0 0 0 
244 1 1 -4.14723 23.4137 -2.9513 0 0 0 
251 2 1 -10.8218 27.7786 1.02876 0 0 0 
78 3 1 -14.9782 35.954 -4.34727 0 0 0 
252 3 1 -13.0104 24.9671 1.88943 0 0 0 
123 3 1 5.70229 -10.1887 11.2055 0 0 0 
178 1 1 52.3412 -17.3843 7.23959 0 0 0 
173 2 1 58.6459 -16.1902 12.8902 0 0 0 
177 3 1 59.8648 -16.2187 6.40712 0 0 0 
176 2 1 56.7142 -15.9897 7.78699 0 0 0 
174 3 1 61.8204 -14.7035 12.3244 0 0 0 
179 2 1 48.3374 -16.3128 6.7348 0 0 0 
172 1 1 54.9795 -15.8769 14.4452 0 0 0 
175 1 1 54.1123 -16.4647 10.7281 0 0 0 
102 3 1 -13.3468 0.935276 4.12983 0 0 0 
106 1 1 -10.8752 0.908791 10.1486 0 0 0 
108 3 1 -6.69572 -2.6083 6.03396 0 0 0 
107 2 1 -10.1157 -2.01679 7.43374 0 0 0 
101 2 1 -12.7097 4.2777 4.77305 0 0 0 
109 1 1 -9.03348 -1.59718 12.5571 0 0 0 
112 1 1 -7.15108 -4.23924 14.506 0 0 0 
113 2 1 -3.22459 -3.7701 14.2031 0 0 0 
97 1 1 -13.9234 11.0959 7.41426 0 0 0 
98 2 1 -13.7286 9.7245 11.2016 0 0 0 
100 1 1 -13.3584 7.27307 7.47707 0 0 0 
103 1 1 -12.547 4.3397 9.67952 0 0 0 
99 3 1 -13.7757 10.4771 14.7826 0 0 0 
104 2 1 -12.3282 3.94705 13.8576 0 0 0 
231 3 1 4.73479 12.3894 -0.0343767 0 0 0 
228 3 1 10.4381 6.73054 0.987516 0 0 0 
89 2 1 -17.0347 22.7662 9.74113 0 0 0 
92 2 1 -16.1965 17.0394 10.2592 0 0 0 
90 3 1 -16.9313 22.4321 13.5458 0 0 0 
86 2 1 -15.6549 27.2926 7.16301 0 0 0 
93 3 1 -15.6112 17.1211 13.7319 0 0 0 
240 3 1 0.172115 17.8051 2.65245 0 0 0 
84 3 1 -20.1411 32.9191 6.07404 0 0 0 
87 3 1 -13.6002 29.1263 9.32007 0 0 0 
246 3 1 -7.90942 23.5184 3.57667 0 0 0 
135 3 1 14.6983 -26.1132 19.0629 0 0 0 
134 2 1 14.9488 -22.3601 18.8259 0 0 0 
132 3 1 13.9441 -22.4039 13.5876 0 0 0 
138 3 1 20.9019 -24.4414 24.2495 0 0 0 
127 1 1 7.35234 -15.3142 18.5086 0 0 0 
128 2 1 8.43092 -15.4668 22.3811 0 0 0 
131 2 1 11.6742 -19.8835 15.0281 0 0 0 
130 1 1 10.5602 -17.2547 18.0226 0 0 0 
133 1 1 14.063 -18.5696 19.3968 0 0 0 
136 1 1 17.6902 -18.64 20.6439 0 0 0 
137 2 1 19.0187 -21.6732 22.9969 0 0 0 
139 1 1 21.4317 -17.8663 21.6296 0 0 0 
142 1 1 24.8818 -17.4176 23.5666 0 0 0 
145 1 1 28.1664 -16.0711 24.7401 0 0 0 
143 2 1 24.4547 -17.8066 27.5783 0 0 0 
140 2 1 24.0502 -15.6779 19.3042 0 0 0 
150 3 1 33.4632 -10.1698 31.413 0 0 0 
144 3 1 22.8879 -19.9074 30.0803 0 0 0 
148 1 1 31.3844 -14.8774 26.46 0 0 0 
149 2 1 32.1268 -13.0801 30.0512 0 0 0 
151 1 1 35.1573 -13.9177 25.9126 0 0 0 
155 2 1 41.5294 -13.3052 29.4694 0 0 0 
156 3 1 42.9988 -15.5444 32.2118 0 0 0 
116 2 1 -6.68357 -10.432 18.2261 0 0 0 
117 3 1 -8.38232 -13.473 18.6702 0 0 0 
122 2 1 3.94411 -11.9644 13.6894 0 0 0 
114 3 1 -0.381715 -4.56354 11.8986 0 0 0 
118 1 1 -2.05302 -9.21595 16.7403 0 0 0 
115 1 1 -5.30365 -7.26502 16.0183 0 0 0 
124 1 1 3.95892 -13.5044 18.0769 0 0 0 
125 2 1 3.99815 -14.6064 22.0184 0 0 0 
121 1 1 1.23539 -11.3086 16.4453 0 0 0 
119 2 1 -0.594885 -9.58229 20.5013 0 0 0 
141 3 1 26.2763 -13.8453 16.7048 0 0 0 
153 3 1 37.7814 -14.3211 18.5503 0 0 0 
152 2 1 36.8673 -13.7949 22.2529 0 0 0 
154 1 1 38.9578 -13.1833 26.336 0 0 0 
157 1 1 42.2981 -12.8748 24.7423 0 0 0 
158 2 1 43.5287 -12.0014 20.9298 0 0 0 
160 1 1 46.2008 -13.2713 24.7674 0 0 0 
161 2 1 47.5981 -13.6096 28.5053 0 0 0 
159 3 1 43.9248 -12.4663 17.2359 0 0 0 
166 1 1 53.0605 -14.351 21.634 0 0 0 