ITEM: TIMESTEP
0
ITEM: NUMBER OF ATOMS
258
ITEM: BOX BOUNDS pp pp pp
-198.63 198.63
-198.63 198.63
-198.63 198.63
ITEM: ATOMS id type mol x y z ix iy iz 
2 2 1 -28.3282 -30.8302 -148.178 0 0 0 
1 1 1 -24.9387 -30.7717 -150.049 0 0 0 
3 3 1 -31.7742 -31.5361 -146.936 0 0 0 
8 2 1 -27.1571 -29.3599 -141.141 0 0 0 
9 3 1 -30.6032 -30.0658 -139.899 0 0 0 
4 1 1 -24.3531 -30.0365 -146.531 0 0 0 
5 2 1 -20.8257 -30.9757 -147.429 0 0 0 
6 3 1 -17.2385 -31.9466 -146.603 0 0 0 
7 1 1 -23.7676 -29.3014 -143.012 0 0 0 
10 1 1 -23.1821 -28.5662 -139.494 0 0 0 
11 2 1 -19.6546 -29.5054 -140.392 0 0 0 
12 3 1 -16.0674 -30.4763 -139.566 0 0 0 
14 2 1 -25.9861 -27.8895 -134.104 0 0 0 
15 3 1 -29.4321 -28.5954 -132.862 0 0 0 
13 1 1 -22.5965 -27.831 -135.976 0 0 0 
16 1 1 -22.011 -27.0959 -132.457 0 0 0 
17 2 1 -18.4836 -28.0351 -133.355 0 0 0 
19 1 1 -21.4255 -26.3607 -128.939 0 0 0 
18 3 1 -14.8963 -29.0059 -132.53 0 0 0 
21 3 1 -28.2611 -27.1251 -125.825 0 0 0 
27 3 1 -27.09 -25.6548 -118.788 0 0 0 
20 2 1 -24.815 -26.4192 -127.067 0 0 0 
22 1 1 -20.84 -25.6256 -125.42 0 0 0 
23 2 1 -17.3125 -26.5647 -126.318 0 0 0 
24 3 1 -13.7253 -27.5356 -125.493 0 0 0 
30 3 1 -12.5542 -26.0653 -118.456 0 0 0 
25 1 1 -20.2544 -24.8904 -121.902 0 0 0 
26 2 1 -23.6439 -24.9489 -120.031 0 0 0 
28 1 1 -19.6689 -24.1552 -118.384 0 0 0 
29 2 1 -16.1414 -25.0944 -119.281 0 0 0 
33 3 1 -25.9189 -24.1845 -111.752 0 0 0 
31 1 1 -19.0834 -23.4201 -114.865 0 0 0 
32 2 1 -22.4729 -23.4785 -112.994 0 0 0 
34 1 1 -18.4978 -22.6849 -111.347 0 0 0 
37 1 1 -17.9123 -21.9497 -107.828 0 0 0 
35 2 1 -14.9704 -23.6241 -112.245 0 0 0 
36 3 1 -11.3831 -24.595 -111.419 0 0 0 
38 2 1 -21.3018 -22.0082 -105.957 0 0 0 
39 3 1 -24.7479 -22.7141 -104.715 0 0 0 
40 1 1 -17.3268 -21.2146 -104.31 0 0 0 
43 1 1 -16.7412 -20.4794 -100.792 0 0 0 
44 2 1 -20.1307 -20.5379 -98.9203 0 0 0 
45 3 1 -23.5768 -21.2438 -97.6781 0 0 0 
46 1 1 -16.1557 -19.7443 -97.2732 0 0 0 
41 2 1 -13.7993 -22.1538 -105.208 0 0 0 
42 3 1 -10.2121 -23.1246 -104.382 0 0 0 
47 2 1 -12.6282 -20.6834 -98.1709 0 0 0 
48 3 1 -9.04103 -21.6543 -97.3458 0 0 0 
49 1 1 -15.5702 -19.0091 -93.7548 0 0 0 
50 2 1 -18.9597 -19.0676 -91.8835 0 0 0 
51 3 1 -22.4058 -19.7735 -90.6412 0 0 0 
52 1 1 -14.9846 -18.2739 -90.2364 0 0 0 
53 2 1 -11.4572 -19.2131 -91.1341 0 0 0 
54 3 1 -7.86996 -20.184 -90.309 0 0 0 
55 1 1 -14.3991 -17.5388 -86.718 0 0 0 
56 2 1 -17.7886 -17.5972 -84.8467 0 0 0 
57 3 1 -21.2347 -18.3032 -83.6044 0 0 0 
62 2 1 -16.6176 -16.1269 -77.8099 0 0 0 
63 3 1 -20.0636 -16.8328 -76.5677 0 0 0 
58 1 1 -13.8136 -16.8036 -83.1996 0 0 0 
59 2 1 -10.2861 -17.7428 -84.0973 0 0 0 
60 3 1 -6.6989 -18.7136 -83.2722 0 0 0 
61 1 1 -13.228 -16.0684 -79.6812 0 0 0 
65 2 1 -9.11506 -16.2724 -77.0605 0 0 0 
69 3 1 -18.8926 -15.3625 -69.5309 0 0 0 
64 1 1 -12.6425 -15.3333 -76.1628 0 0 0 
66 3 1 -5.52784 -17.2433 -76.2353 0 0 0 
72 3 1 -4.35678 -15.773 -69.1985 0 0 0 
68 2 1 -15.4465 -14.6566 -70.7731 0 0 0 
67 1 1 -12.057 -14.5981 -72.6444 0 0 0 
70 1 1 -11.4715 -13.8629 -69.126 0 0 0 
71 2 1 -7.944 -14.8021 -70.0237 0 0 0 
75 3 1 -17.7215 -13.8922 -62.4941 0 0 0 
73 1 1 -10.8859 -13.1278 -65.6076 0 0 0 
74 2 1 -14.2754 -13.1863 -63.7363 0 0 0 
76 1 1 -10.3004 -12.3926 -62.0892 0 0 0 
77 2 1 -6.77294 -13.3318 -62.9869 0 0 0 
79 1 1 -9.71487 -11.6575 -58.5708 0 0 0 
80 2 1 -13.1044 -11.7159 -56.6995 0 0 0 
78 3 1 -3.18572 -14.3027 -62.1617 0 0 0 
81 3 1 -16.5505 -12.4218 -55.4573 0 0 0 
87 3 1 -15.3794 -10.9515 -48.4205 0 0 0 
82 1 1 -9.12934 -10.9223 -55.0524 0 0 0 
83 2 1 -5.60187 -11.8615 -55.9501 0 0 0 
85 1 1 -8.54381 -10.1871 -51.534 0 0 0 
86 2 1 -11.9333 -10.2456 -49.6627 0 0 0 
88 1 1 -7.95828 -9.45196 -48.0156 0 0 0 
84 3 1 -2.01466 -12.8323 -55.1249 0 0 0 
89 2 1 -4.43081 -10.3911 -48.9133 0 0 0 
90 3 1 -0.843596 -11.362 -48.0881 0 0 0 
91 1 1 -7.37275 -8.7168 -44.4972 0 0 0 
92 2 1 -10.7623 -8.77528 -42.6259 0 0 0 
93 3 1 -14.2083 -9.4812 -41.3836 0 0 0 
94 1 1 -6.78722 -7.98163 -40.9788 0 0 0 
97 1 1 -6.20169 -7.24647 -37.4604 0 0 0 
95 2 1 -3.25975 -8.92082 -41.8765 0 0 0 
96 3 1 0.327464 -9.89168 -41.0513 0 0 0 
98 2 1 -9.59121 -7.30495 -35.5891 0 0 0 
99 3 1 -13.0373 -8.01088 -34.3468 0 0 0 
100 1 1 -5.61616 -6.51131 -33.942 0 0 0 
104 2 1 -8.42014 -5.83463 -28.5523 0 0 0 
105 3 1 -11.8662 -6.54055 -27.31 0 0 0 
101 2 1 -2.08869 -7.45049 -34.8397 0 0 0 
102 3 1 1.49853 -8.42135 -34.0145 0 0 0 
103 1 1 -5.03063 -5.77614 -30.4236 0 0 0 
107 2 1 -0.91763 -5.98017 -27.8029 0 0 0 
108 3 1 2.66959 -6.95103 -26.9778 0 0 0 
106 1 1 -4.4451 -5.04098 -26.9052 0 0 0 
114 3 1 3.84065 -5.4807 -19.9409 0 0 0 
110 2 1 -7.24908 -4.3643 -21.5155 0 0 0 
111 3 1 -10.6951 -5.07022 -20.2732 0 0 0 
109 1 1 -3.85956 -4.30582 -23.3868 0 0 0 
112 1 1 -3.27403 -3.57065 -19.8684 0 0 0 
113 2 1 0.253431 -4.50984 -20.7661 0 0 0 
115 1 1 -2.6885 -2.83549 -16.35 0 0 0 
116 2 1 -6.07802 -2.89397 -14.4787 0 0 0 
117 3 1 -9.52409 -3.5999 -13.2364 0 0 0 
123 3 1 -8.35303 -2.12957 -6.19964 0 0 0 
118 1 1 -2.10297 -2.10033 -12.8316 0 0 0 
119 2 1 1.42449 -3.03951 -13.7293 0 0 0 
120 3 1 5.01171 -4.01037 -12.9041 0 0 0 
121 1 1 -1.51744 -1.36516 -9.31319 0 0 0 
122 2 1 -4.90696 -1.42365 -7.44193 0 0 0 
124 1 1 -0.931911 -0.629998 -5.79479 0 0 0 
125 2 1 2.59555 -1.56918 -6.69249 0 0 0 
126 3 1 6.18277 -2.54004 -5.86735 0 0 0 
129 3 1 -7.18197 -0.659241 0.837158 0 0 0 
127 1 1 -0.34638 0.105164 -2.27638 0 0 0 
128 2 1 -3.7359 0.046681 -0.405124 0 0 0 
130 1 1 0.23915 0.840328 1.24202 0 0 0 
131 2 1 3.76661 -0.098857 0.344313 0 0 0 
133 1 1 0.82468 1.57549 4.76042 0 0 0 
132 3 1 7.35383 -1.06972 1.16945 0 0 0 
135 3 1 -6.01091 0.811085 7.87396 0 0 0 
134 2 1 -2.56484 1.51701 6.63168 0 0 0 
136 1 1 1.41021 2.31066 8.27882 0 0 0 
137 2 1 4.93768 1.37147 7.38111 0 0 0 
139 1 1 1.99574 3.04582 11.7972 0 0 0 
140 2 1 -1.39377 2.98733 13.6685 0 0 0 
141 3 1 -4.83985 2.28141 14.9108 0 0 0 
138 3 1 8.52489 0.400609 8.20626 0 0 0 
143 2 1 6.10874 2.8418 14.4179 0 0 0 
144 3 1 9.69595 1.87094 15.2431 0 0 0 
142 1 1 2.58127 3.78098 15.3156 0 0 0 
145 1 1 3.1668 4.51615 18.834 0 0 0 
146 2 1 -0.222713 4.45766 20.7053 0 0 0 
147 3 1 -3.66878 3.75174 21.9476 0 0 0 
149 2 1 7.2798 4.31212 21.4547 0 0 0 
150 3 1 10.867 3.34126 22.2798 0 0 0 
148 1 1 3.75233 5.25131 22.3524 0 0 0 
156 3 1 12.0381 4.81159 29.3167 0 0 0 
151 1 1 4.33786 5.98647 25.8708 0 0 0 
152 2 1 0.948347 5.92799 27.7421 0 0 0 
153 3 1 -2.49772 5.22207 28.9844 0 0 0 
154 1 1 4.9234 6.72164 29.3892 0 0 0 
158 2 1 2.11941 7.39832 34.7789 0 0 0 
155 2 1 8.45086 5.78245 28.4915 0 0 0 
157 1 1 5.50893 7.4568 32.9076 0 0 0 
161 2 1 9.62192 7.25278 35.5283 0 0 0 
159 3 1 -1.32666 6.69239 36.0212 0 0 0 
164 2 1 3.29047 8.86864 41.8157 0 0 0 
165 3 1 -0.155599 8.16272 43.058 0 0 0 
160 1 1 6.09446 8.19196 36.426 0 0 0 
162 3 1 13.2091 6.28192 36.3535 0 0 0 
163 1 1 6.67999 8.92713 39.9444 0 0 0 
166 1 1 7.26552 9.66229 43.4628 0 0 0 
167 2 1 10.793 8.72311 42.5651 0 0 0 
168 3 1 14.3802 7.75224 43.3903 0 0 0 
170 2 1 4.46153 10.339 48.8525 0 0 0 
171 3 1 1.01546 9.63305 50.0948 0 0 0 
169 1 1 7.85105 10.3974 46.9812 0 0 0 
172 1 1 8.43658 11.1326 50.4996 0 0 0 
173 2 1 11.964 10.1934 49.6019 0 0 0 
175 1 1 9.02211 11.8678 54.018 0 0 0 
176 2 1 5.63259 11.8093 55.8893 0 0 0 
174 3 1 15.5513 9.22257 50.4271 0 0 0 
177 3 1 2.18652 11.1034 57.1316 0 0 0 
183 3 1 3.35758 12.5737 64.1684 0 0 0 
178 1 1 9.60764 12.6029 57.5364 0 0 0 
179 2 1 13.1351 11.6638 56.6387 0 0 0 
181 1 1 10.1932 13.3381 61.0548 0 0 0 
182 2 1 6.80365 13.2796 62.9261 0 0 0 
184 1 1 10.7787 14.0733 64.5732 0 0 0 
185 2 1 14.3062 13.1341 63.6755 0 0 0 
180 3 1 16.7223 10.6929 57.4639 0 0 0 
186 3 1 17.8934 12.1632 64.5007 0 0 0 
189 3 1 4.52865 14.044 71.2052 0 0 0 
187 1 1 11.3642 14.8084 68.0916 0 0 0 
188 2 1 7.97472 14.75 69.9629 0 0 0 
191 2 1 15.4772 14.6044 70.7123 0 0 0 
192 3 1 19.0644 13.6335 71.5375 0 0 0 
190 1 1 11.9498 15.5436 71.61 0 0 0 
193 1 1 12.5353 16.2788 75.1284 0 0 0 
198 3 1 20.2355 15.1039 78.5743 0 0 0 
194 2 1 9.14578 16.2203 76.9997 0 0 0 
195 3 1 5.69971 15.5144 78.242 0 0 0 
196 1 1 13.1208 17.0139 78.6468 0 0 0 
199 1 1 13.7064 17.7491 82.1652 0 0 0 
200 2 1 10.3168 17.6906 84.0365 0 0 0 
201 3 1 6.87077 16.9847 85.2788 0 0 0 
202 1 1 14.2919 18.4842 85.6836 0 0 0 
197 2 1 16.6483 16.0747 77.7491 0 0 0 
203 2 1 17.8194 17.5451 84.7859 0 0 0 
204 3 1 21.4066 16.5742 85.6111 0 0 0 
205 1 1 14.8774 19.2194 89.202 0 0 0 
206 2 1 11.4879 19.1609 91.0733 0 0 0 
207 3 1 8.04183 18.455 92.3156 0 0 0 
208 1 1 15.4629 19.9546 92.7204 0 0 0 
209 2 1 18.9904 19.0154 91.8227 0 0 0 
210 3 1 22.5776 18.0445 92.6479 0 0 0 
211 1 1 16.0485 20.6897 96.2388 0 0 0 
212 2 1 12.659 20.6313 98.1101 0 0 0 
213 3 1 9.21289 19.9253 99.3524 0 0 0 
218 2 1 13.83 22.1016 105.147 0 0 0 
219 3 1 10.384 21.3957 106.389 0 0 0 
214 1 1 16.634 21.4249 99.7572 0 0 0 
215 2 1 20.1615 20.4857 98.8595 0 0 0 
216 3 1 23.7487 19.5149 99.6847 0 0 0 
217 1 1 17.2195 22.1601 103.276 0 0 0 
220 1 1 17.8051 22.8952 106.794 0 0 0 
221 2 1 21.3325 21.956 105.896 0 0 0 
222 3 1 24.9198 20.9852 106.721 0 0 0 
224 2 1 15.0011 23.5719 112.184 0 0 0 
225 3 1 11.555 22.866 113.426 0 0 0 
223 1 1 18.3906 23.6304 110.312 0 0 0 
226 1 1 18.9761 24.3656 113.831 0 0 0 
227 2 1 22.5036 23.4264 112.933 0 0 0 
228 3 1 26.0908 22.4555 113.758 0 0 0 
231 3 1 12.7261 24.3363 120.463 0 0 0 
229 1 1 19.5617 25.1007 117.349 0 0 0 
230 2 1 16.1721 25.0422 119.22 0 0 0 
233 2 1 23.6747 24.8967 119.97 0 0 0 
234 3 1 27.2619 23.9258 120.795 0 0 0 
232 1 1 20.1472 25.8359 120.868 0 0 0 
235 1 1 20.7327 26.571 124.386 0 0 0 
236 2 1 17.3432 26.5126 126.257 0 0 0 
239 2 1 24.8457 26.367 127.007 0 0 0 
240 3 1 28.4329 25.3962 127.832 0 0 0 
237 3 1 13.8971 25.8066 127.499 0 0 0 
243 3 1 15.0682 27.277 134.536 0 0 0 
238 1 1 21.3182 27.3062 127.904 0 0 0 
241 1 1 21.9038 28.0414 131.423 0 0 0 
242 2 1 18.5143 27.9829 133.294 0 0 0 
244 1 1 22.4893 28.7765 134.941 0 0 0 
245 2 1 26.0168 27.8374 134.043 0 0 0 
246 3 1 29.604 26.8665 134.869 0 0 0 
247 1 1 23.0748 29.5117 138.46 0 0 0 
248 2 1 19.6853 29.4532 140.331 0 0 0 
249 3 1 16.2393 28.7473 141.573 0 0 0 
250 1 1 23.6604 30.2469 141.978 0 0 0 
253 1 1 24.2459 30.982 145.496 0 0 0 
254 2 1 20.8564 30.9235 147.368 0 0 0 
251 2 1 27.1878 29.3077 141.08 0 0 0 
252 3 1 30.7751 28.3368 141.905 0 0 0 
255 3 1 17.4103 30.2176 148.61 0 0 0 
256 1 1 24.8314 31.7172 149.015 0 0 0 
257 2 1 28.3589 30.778 148.117 0 0 0 
258 3 1 31.9461 29.8072 148.942 0 0 0 
ITEM: TIMESTEP
100000
ITEM: NUMBER OF ATOMS
258
ITEM: BOX BOUNDS pp pp pp
-198.63 198.63
-198.63 198.63
-198.63 198.63
ITEM: ATOMS id type mol x y z ix iy iz 
6 3 1 -78.8298 -12.7119 -82.0002 0 0 0 
39 3 1 -52.0784 -20.3346 -80.8178 0 0 0 
42 3 1 -47.3896 -23.4789 -79.9742 0 0 0 
5 2 1 -81.2699 -11.6609 -84.7513 0 0 0 
8 2 1 -83.1618 -3.66171 -85.3354 0 0 0 
11 2 1 -78.8467 -1.3674 -84.855 0 0 0 
12 3 1 -79.0936 2.34079 -83.6824 0 0 0 
7 1 1 -82.5779 -7.10352 -86.2673 0 0 0 
10 1 1 -79.3883 -4.85935 -86.6184 0 0 0 
13 1 1 -75.8587 -4.24971 -87.9996 0 0 0 
14 2 1 -73.3799 -2.23461 -85.4413 0 0 0 
15 3 1 -73.0814 0.901181 -83.6261 0 0 0 
21 3 1 -68.0875 -5.27567 -82.4999 0 0 0 
16 1 1 -72.5224 -4.70985 -89.881 0 0 0 
20 2 1 -67.6969 -5.96026 -86.1206 0 0 0 
19 1 1 -68.9309 -6.10533 -89.9866 0 0 0 
22 1 1 -65.6506 -8.1252 -90.3616 0 0 0 
27 3 1 -56.9628 -4.72595 -92.6079 0 0 0 
26 2 1 -59.2419 -6.95783 -90.4331 0 0 0 
25 1 1 -62.1253 -9.43104 -89.8193 0 0 0 
28 1 1 -59.1239 -11.6497 -88.967 0 0 0 
33 3 1 -51.634 -5.90459 -86.4884 0 0 0 
32 2 1 -52.9723 -9.03685 -87.3296 0 0 0 
31 1 1 -55.4621 -12.243 -87.699 0 0 0 
35 2 1 -49.8934 -11.9316 -84.8959 0 0 0 
36 3 1 -47.1066 -10.6817 -83.0007 0 0 0 
9 3 1 -85.0971 -0.885587 -86.3826 0 0 0 
38 2 1 -50.4563 -20.6353 -84.2536 0 0 0 
47 2 1 -35.6251 -20.2694 -84.5172 0 0 0 
48 3 1 -32.6552 -19.3611 -86.0465 0 0 0 
49 1 1 -36.0214 -19.2799 -79.7331 0 0 0 
1 1 1 -87.7977 -12.7923 -87.2861 0 0 0 
2 2 1 -89.2505 -8.99898 -87.7376 0 0 0 
4 1 1 -84.6706 -10.4121 -86.7181 0 0 0 
17 2 1 -71.4585 -4.22335 -93.8123 0 0 0 
18 3 1 -71.6049 -5.9203 -97.2256 0 0 0 
24 3 1 -65.3875 -13.2966 -95.832 0 0 0 
23 2 1 -64.4836 -11.0133 -92.9566 0 0 0 
29 2 1 -59.9001 -15.5911 -88.0151 0 0 0 
30 3 1 -60.442 -18.7741 -85.9635 0 0 0 
37 1 1 -49.8303 -16.874 -85.4355 0 0 0 
34 1 1 -52.452 -14.058 -86.2501 0 0 0 
40 1 1 -46.1562 -18.1114 -84.872 0 0 0 
41 2 1 -46.3015 -20.7519 -81.9578 0 0 0 
43 1 1 -42.4692 -19.0814 -84.0281 0 0 0 
46 1 1 -38.9513 -19.3688 -82.3348 0 0 0 
50 2 1 -32.52 -19.9464 -80.0269 0 0 0 
51 3 1 -29.2793 -21.7657 -79.9326 0 0 0 
3 3 1 -91.7327 -6.05854 -88.3642 0 0 0 
56 2 1 -32.5101 -16.6796 -70.1445 0 0 0 
53 2 1 -35.426 -18.8076 -72.9645 0 0 0 
54 3 1 -37.3828 -21.4683 -71.0176 0 0 0 
57 3 1 -33.9906 -17.3736 -66.631 0 0 0 
52 1 1 -33.867 -18.3979 -76.5552 0 0 0 
55 1 1 -31.1664 -17.5126 -73.9422 0 0 0 
63 3 1 -22.9118 -10.3175 -67.4813 0 0 0 
62 2 1 -23.3022 -14.0179 -67.566 0 0 0 
45 3 1 -37.8877 -24.0542 -87.5072 0 0 0 
44 2 1 -40.279 -21.6907 -86.4579 0 0 0 
58 1 1 -27.8286 -17.0295 -72.0635 0 0 0 
59 2 1 -26.4499 -20.7082 -70.8978 0 0 0 
65 2 1 -17.87 -16.4122 -73.042 0 0 0 
64 1 1 -20.4757 -15.9684 -69.8889 0 0 0 
67 1 1 -17.3512 -15.0632 -67.886 0 0 0 
61 1 1 -24.2933 -16.4477 -70.5222 0 0 0 
60 3 1 -25.5766 -24.404 -71.2366 0 0 0 
66 3 1 -17.0344 -15.8778 -76.461 0 0 0 
69 3 1 -10.2247 -15.0293 -68.3437 0 0 0 
68 2 1 -13.8828 -15.1582 -69.109 0 0 0 
75 3 1 -8.86185 -6.932 -66.7091 0 0 0 
70 1 1 -15.3911 -13.8291 -64.8106 0 0 0 
73 1 1 -12.4542 -11.922 -63.0666 0 0 0 
74 2 1 -10.5125 -9.87054 -65.1954 0 0 0 
72 3 1 -17.6204 -14.677 -57.6939 0 0 0 
71 2 1 -16.1269 -14.9851 -61.2878 0 0 0 
76 1 1 -9.11137 -10.2398 -61.6925 0 0 0 
77 2 1 -5.56805 -11.4155 -63.4475 0 0 0 
79 1 1 -6.55729 -8.32915 -59.492 0 0 0 
85 1 1 -0.55195 -4.51478 -56.2089 0 0 0 
80 2 1 -7.65028 -5.71086 -56.6023 0 0 0 
82 1 1 -3.16474 -6.66368 -58.2355 0 0 0 
83 2 1 0.162373 -8.071 -59.8265 0 0 0 
84 3 1 2.78153 -8.82191 -62.5183 0 0 0 
86 2 1 2.94973 -3.40687 -57.9563 0 0 0 
81 3 1 -9.00931 -4.16528 -53.8135 0 0 0 
87 3 1 3.60135 -1.17609 -60.6027 0 0 0 
78 3 1 -1.75492 -11.6537 -64.08 0 0 0 
90 3 1 -2.46206 2.23012 -48.4201 0 0 0 
89 2 1 -0.84714 -0.337916 -50.7325 0 0 0 
88 1 1 1.34457 -2.35024 -53.4832 0 0 0 
92 2 1 5.71651 3.00163 -51.9042 0 0 0 
91 1 1 3.99737 -0.6678 -51.0694 0 0 0 
94 1 1 6.53008 -0.403487 -48.0637 0 0 0 
97 1 1 8.65036 -1.69278 -44.9999 0 0 0 
95 2 1 9.41073 2.48326 -47.5733 0 0 0 
93 3 1 5.40527 6.44073 -52.3531 0 0 0 
96 3 1 11.1772 5.87047 -47.2449 0 0 0 
99 3 1 12.2258 -8.11592 -42.7451 0 0 0 
102 3 1 11.664 5.92005 -38.4096 0 0 0 
98 2 1 9.76484 -5.24143 -43.7241 0 0 0 
100 1 1 11.1156 -0.865297 -42.0991 0 0 0 
103 1 1 13.5942 -1.56036 -39.1165 0 0 0 
101 2 1 12.0715 2.69341 -40.593 0 0 0 
104 2 1 16.0057 1.32899 -37.5715 0 0 0 
105 3 1 18.0616 4.11887 -37.6442 0 0 0 
108 3 1 17.763 -9.50254 -33.7805 0 0 0 
107 2 1 16.6157 -6.8463 -35.9523 0 0 0 
114 3 1 16.5262 -11.7093 -27.5222 0 0 0 
113 2 1 17.5809 -8.66173 -28.8599 0 0 0 
106 1 1 15.4483 -3.22654 -36.2285 0 0 0 
109 1 1 17.0045 -3.31287 -32.7072 0 0 0 
110 2 1 17.9634 0.211028 -31.0566 0 0 0 
112 1 1 17.5258 -4.87961 -29.2195 0 0 0 
111 3 1 19.197 3.66119 -31.1388 0 0 0 
120 3 1 19.3246 -15.2177 -23.0587 0 0 0 
115 1 1 18.4507 -5.70815 -25.5364 0 0 0 
119 2 1 19.8232 -11.8129 -22.6109 0 0 0 
118 1 1 19.6577 -7.97323 -22.8893 0 0 0 
121 1 1 20.7814 -8.23288 -19.3668 0 0 0 
122 2 1 20.0034 -6.07747 -15.9746 0 0 0 
124 1 1 22.8049 -9.88239 -16.5619 0 0 0 
116 2 1 18.5068 -3.17438 -22.2743 0 0 0 
117 3 1 15.3898 -2.67581 -20.2198 0 0 0 
123 3 1 17.998 -3.26956 -14.8486 0 0 0 
125 2 1 24.2229 -13.4787 -15.1138 0 0 0 
126 3 1 24.2189 -17.3182 -14.4146 0 0 0 
127 1 1 24.2505 -9.45355 -12.9775 0 0 0 
130 1 1 24.8669 -8.8408 -9.20848 0 0 0 
128 2 1 23.9595 -5.67056 -11.9656 0 0 0 
133 1 1 25.5432 -6.91925 -5.91961 0 0 0 
132 3 1 25.1127 -14.8545 -6.34235 0 0 0 
131 2 1 26.2675 -11.6279 -7.19683 0 0 0 
129 3 1 24.364 -2.92731 -9.65185 0 0 0 
136 1 1 25.3835 -4.0339 -3.28912 0 0 0 
140 2 1 27.1033 -4.02528 3.22428 0 0 0 
134 2 1 26.3956 -8.74378 -2.51007 0 0 0 
135 3 1 26.1658 -12.2717 -1.16855 0 0 0 
144 3 1 18.9768 5.34887 1.0909 0 0 0 
139 1 1 25.551 -2.08375 0.102778 0 0 0 
137 2 1 23.5335 -0.433706 -4.02847 0 0 0 
142 1 1 24.5453 0.285993 3.00556 0 0 0 
143 2 1 21.6682 3.09428 2.56034 0 0 0 
138 3 1 22.6328 2.99173 -4.95178 0 0 0 
141 3 1 27.7019 -6.62321 5.77863 0 0 0 
147 3 1 22.5332 9.33535 7.48951 0 0 0 
145 1 1 24.262 1.95903 6.51188 0 0 0 
148 1 1 25.3045 2.21812 10.2517 0 0 0 
146 2 1 22.6817 5.57424 7.2349 0 0 0 
151 1 1 25.5347 2.90022 13.9707 0 0 0 
150 3 1 31.0324 -1.87579 13.2623 0 0 0 
149 2 1 27.9323 -0.694301 11.4782 0 0 0 
152 2 1 22.2941 4.85049 14.8709 0 0 0 
153 3 1 19.3647 6.72845 13.9068 0 0 0 
154 1 1 26.195 3.25932 17.7347 0 0 0 
156 3 1 31.4877 -0.0422273 21.9145 0 0 0 
155 2 1 29.2267 2.47088 20.3794 0 0 0 
161 2 1 27.7894 3.80444 27.5241 0 0 0 
158 2 1 21.1548 2.98625 22.0556 0 0 0 
159 3 1 18.1169 1.10015 21.5642 0 0 0 
157 1 1 24.9792 3.80935 21.2179 0 0 0 
160 1 1 24.6748 4.75705 25.0041 0 0 0 
162 3 1 30.8951 4.84339 29.5349 0 0 0 
165 3 1 19.0798 11.6473 30.4184 0 0 0 
164 2 1 20.3745 8.36622 29.5459 0 0 0 
163 1 1 23.5479 5.78988 28.5367 0 0 0 
166 1 1 23.6323 5.75206 32.4538 0 0 0 
167 2 1 26.4032 4.26735 34.8257 0 0 0 
169 1 1 23.1484 6.19937 36.2572 0 0 0 
168 3 1 29.3851 5.96509 33.9907 0 0 0 
180 3 1 13.3549 12.5809 47.9898 0 0 0 
172 1 1 21.8409 6.94526 39.8494 0 0 0 
175 1 1 21.2709 7.30624 43.7056 0 0 0 
173 2 1 18.1728 8.68225 40.1828 0 0 0 
178 1 1 19.9759 8.46504 47.3067 0 0 0 
174 3 1 14.8025 7.63645 40.1301 0 0 0 
179 2 1 16.5048 10.5466 47.8901 0 0 0 
176 2 1 23.2288 4.52851 45.8155 0 0 0 
171 3 1 29.1782 6.00377 38.7495 0 0 0 
170 2 1 25.8361 5.27299 39.1967 0 0 0 
183 3 1 15.8939 14.3558 54.6159 0 0 0 
177 3 1 26.3781 3.31887 47.7849 0 0 0 
184 1 1 19.1364 8.7935 54.9481 0 0 0 
185 2 1 21.0837 6.71747 57.7736 0 0 0 
181 1 1 19.3817 8.8732 51.1341 0 0 0 
182 2 1 16.7616 11.7506 52.2518 0 0 0 
187 1 1 17.3996 10.0627 58.1081 0 0 0 
193 1 1 14.3322 9.06712 65.0641 0 0 0 
189 3 1 12.6528 15.6168 59.113 0 0 0 
194 2 1 11.5544 11.885 65.7841 0 0 0 
188 2 1 15.2081 13.1082 59.7863 0 0 0 
195 3 1 8.37154 14.109 65.4244 0 0 0 
191 2 1 17.9011 5.54822 62.8657 0 0 0 
192 3 1 20.4506 3.32836 64.6171 0 0 0 
190 1 1 16.3119 8.96678 61.6008 0 0 0 
186 3 1 22.1877 3.73717 59.4207 0 0 0 
204 3 1 12.3437 -0.117502 76.8261 0 0 0 
198 3 1 16.8563 2.28482 71.5025 0 0 0 
197 2 1 14.6062 4.59445 69.9834 0 0 0 
196 1 1 13.2228 8.17569 68.6318 0 0 0 
199 1 1 11.9816 8.33521 72.3913 0 0 0 
202 1 1 11.9394 6.76501 75.9463 0 0 0 
200 2 1 9.74104 10.8703 74.6268 0 0 0 
203 2 1 10.7003 2.90534 76.327 0 0 0 
201 3 1 8.46185 14.2206 75.7988 0 0 0 
207 3 1 9.6996 0.0789359 83.6691 0 0 0 
205 1 1 12.9252 5.74107 79.5122 0 0 0 
208 1 1 14.2122 6.4373 83.0766 0 0 0 
211 1 1 14.9111 8.61698 86.2268 0 0 0 
206 2 1 11.6975 2.76408 81.7654 0 0 0 
209 2 1 15.3066 3.89451 86.0683 0 0 0 
213 3 1 15.4144 15.9981 85.8232 0 0 0 
212 2 1 14.8248 12.7068 86.7128 0 0 0 
214 1 1 15.84 9.28438 89.7832 0 0 0 
215 2 1 17.3264 7.29699 93.013 0 0 0 
216 3 1 17.5948 4.70566 95.8819 0 0 0 
210 3 1 13.005 2.37109 88.7372 0 0 0 
225 3 1 27.2742 17.4374 100.8 0 0 0 
219 3 1 11.6733 16.799 90.7458 0 0 0 
218 2 1 14.9962 15.6518 92.1358 0 0 0 
217 1 1 16.6185 12.1665 92.3859 0 0 0 
220 1 1 18.2061 14.5033 95.2483 0 0 0 
222 3 1 17.6058 21.7873 94.639 0 0 0 
224 2 1 24.2877 16.1145 99.1379 0 0 0 
223 1 1 20.3817 15.7159 98.1326 0 0 0 
226 1 1 21.1774 17.1158 101.638 0 0 0 
227 2 1 17.9557 17.0091 104.158 0 0 0 
229 1 1 22.9876 18.8174 104.634 0 0 0 
221 2 1 16.8075 18.1738 95.6387 0 0 0 
228 3 1 14.4597 18.2087 105.323 0 0 0 
231 3 1 19.6908 22.4535 110.279 0 0 0 
230 2 1 21.7441 21.2248 107.344 0 0 0 
232 1 1 25.831 19.9682 107.041 0 0 0 
234 3 1 23.7838 25.1637 111.72 0 0 0 
236 2 1 30.2309 21.3167 112.334 0 0 0 
233 2 1 24.8503 21.8685 110.406 0 0 0 
235 1 1 29.287 21.1008 108.613 0 0 0 
238 1 1 32.8368 22.2597 109.485 0 0 0 
240 3 1 37.248 25.3201 104.87 0 0 0 
239 2 1 34.8141 24.9708 107.429 0 0 0 
241 1 1 36.102 22.4059 111.576 0 0 0 
242 2 1 39.2425 25.0241 110.94 0 0 0 
249 3 1 44.5757 25.1075 113.019 0 0 0 
243 3 1 40.1104 27.8429 108.773 0 0 0 
244 1 1 38.5568 20.9382 114.498 0 0 0 
248 2 1 44.4381 23.6341 116.435 0 0 0 
237 3 1 32.0619 18.2663 113.008 0 0 0 
245 2 1 38.6777 17.7974 116.901 0 0 0 
247 1 1 41.7631 20.81 116.833 0 0 0 
250 1 1 44.2626 19.6656 119.536 0 0 0 
251 2 1 47.8769 20.1055 119.55 0 0 0 
246 3 1 39.8525 14.1869 117.474 0 0 0 
253 1 1 45.9985 17.9287 122.585 0 0 0 
256 1 1 48.5787 16.8798 125.385 0 0 0 
254 2 1 44.0157 16.1754 125.692 0 0 0 
252 3 1 50.3879 22.0848 121.71 0 0 0 
255 3 1 42.4993 12.8293 126.667 0 0 0 
257 2 1 48.2856 14.9474 128.748 0 0 0 
258 3 1 46.2946 13.0402 130.827 0 0 0 
ITEM: TIMESTEP
200000
ITEM: NUMBER OF ATOMS
258
ITEM: BOX BOUNDS pp pp pp
-198.63 198.63
-198.63 198.63
-198.63 198.63
ITEM: ATOMS id type mol x y z ix iy iz 
24 3 1 -65.2602 -10.0475 -106.244 0 0 0 
18 3 1 -64.2755 3.13684 -110.888 0 0 0 
21 3 1 -65.0634 -4.28123 -110.38 0 0 0 
6 3 1 -58.8888 16.0904 -104 0 0 0 
15 3 1 -67.4224 7.15933 -108.064 0 0 0 
29 2 1 -62.5686 -14.0885 -98.6344 0 0 0 
25 1 1 -62.3258 -7.19805 -99.4054 0 0 0 
28 1 1 -62.0104 -10.4306 -97.0781 0 0 0 
30 3 1 -62.1227 -17.4923 -99.4652 0 0 0 
20 2 1 -64.6235 -3.24206 -106.689 0 0 0 
17 2 1 -64.5183 2.68802 -107.101 0 0 0 
23 2 1 -64.3795 -8.01674 -103.536 0 0 0 
22 1 1 -63.1775 -4.38642 -102.155 0 0 0 
19 1 1 -63.4944 -0.734452 -103.597 0 0 0 
16 1 1 -63.3769 3.1103 -103.416 0 0 0 
10 1 1 -62.322 9.75265 -99.9599 0 0 0 
8 2 1 -64.3521 10.762 -95.812 0 0 0 
14 2 1 -64.8913 6.92055 -105.679 0 0 0 
13 1 1 -63.0136 6.68197 -102.173 0 0 0 
5 2 1 -60.2105 16.014 -100.332 0 0 0 
7 1 1 -62.6132 13.3381 -98.3511 0 0 0 
1 1 1 -62.7419 20.314 -94.993 0 0 0 
2 2 1 -64.5718 17.7398 -93.0552 0 0 0 
3 3 1 -64.9664 14.7736 -90.53 0 0 0 
4 1 1 -62.2431 16.9959 -96.9716 0 0 0 
36 3 1 -58.8107 -22.1399 -93.474 0 0 0 
35 2 1 -59.6166 -18.6518 -92.079 0 0 0 
37 1 1 -57.5509 -16.4532 -88.582 0 0 0 
40 1 1 -55.6443 -18.3917 -85.7096 0 0 0 
38 2 1 -55.4775 -13.8692 -86.1954 0 0 0 
39 3 1 -54.4978 -12.3021 -83.1037 0 0 0 
45 3 1 -55.8089 -16.9067 -75.4393 0 0 0 
27 3 1 -59.4251 -6.94178 -92.4437 0 0 0 
34 1 1 -59.7328 -15.1594 -91.5154 0 0 0 
31 1 1 -61.1865 -12.271 -93.6882 0 0 0 
32 2 1 -61.3355 -10.9014 -89.8923 0 0 0 
33 3 1 -63.7128 -9.5524 -87.8926 0 0 0 
26 2 1 -61.212 -5.82714 -95.7384 0 0 0 
9 3 1 -65.6042 9.62105 -92.6558 0 0 0 
11 2 1 -60.425 6.88136 -97.7638 0 0 0 
12 3 1 -59.8609 4.42082 -95.0203 0 0 0 
48 3 1 -53.1259 -21.8151 -73.5795 0 0 0 
47 2 1 -50.8498 -20.426 -76.4128 0 0 0 
42 3 1 -53.5293 -24.9706 -88.5572 0 0 0 
41 2 1 -54.0881 -22.0565 -86.7522 0 0 0 
49 1 1 -48.2988 -23.3528 -79.0103 0 0 0 
43 1 1 -54.0571 -19.3752 -82.433 0 0 0 
46 1 1 -51.2962 -21.1765 -80.4192 0 0 0 
44 2 1 -55.5726 -18.6176 -78.752 0 0 0 
50 2 1 -45.8281 -26.409 -79.9381 0 0 0 
54 3 1 -41.674 -29.3525 -73.8328 0 0 0 
52 1 1 -46.4745 -23.8057 -75.6073 0 0 0 
55 1 1 -45.6839 -22.9693 -71.9665 0 0 0 
53 2 1 -44.0304 -26.4663 -74.0158 0 0 0 
51 3 1 -42.2576 -26.1224 -80.4236 0 0 0 
58 1 1 -44.3173 -22.0279 -68.6114 0 0 0 
56 2 1 -48.692 -21.0844 -69.899 0 0 0 
57 3 1 -50.6268 -17.7999 -70.3279 0 0 0 
66 3 1 -32.9417 -24.638 -62.2777 0 0 0 
68 2 1 -35.6931 -13.971 -61.6405 0 0 0 
62 2 1 -42.583 -17.0877 -63.9503 0 0 0 
64 1 1 -38.5992 -19.9272 -64.0407 0 0 0 
67 1 1 -35.9943 -18.0829 -61.7605 0 0 0 
61 1 1 -41.9252 -20.6726 -65.9644 0 0 0 
65 2 1 -35.6239 -22.8397 -63.7786 0 0 0 
70 1 1 -33.0957 -16.906 -59.4977 0 0 0 
71 2 1 -30.3144 -19.1965 -57.4459 0 0 0 
72 3 1 -27.9187 -22.1087 -57.1551 0 0 0 
60 3 1 -49.6971 -21.731 -63.8485 0 0 0 
63 3 1 -45.734 -15.0173 -64.1995 0 0 0 
59 2 1 -46.1736 -22.6927 -65.034 0 0 0 
75 3 1 -30.0415 -7.16886 -57.7114 0 0 0 
74 2 1 -29.9913 -10.6599 -57.5441 0 0 0 
73 1 1 -31.0447 -14.4774 -57.1576 0 0 0 
76 1 1 -29.1004 -13.6903 -53.9177 0 0 0 
79 1 1 -27.5778 -14.4777 -50.4324 0 0 0 
78 3 1 -25.5932 -7.0303 -53.3563 0 0 0 
77 2 1 -26.8419 -10.3477 -53.1648 0 0 0 
80 2 1 -26.8546 -18.4328 -49.1167 0 0 0 
81 3 1 -28.45 -21.4303 -48.1215 0 0 0 
69 3 1 -36.3275 -10.5876 -63.3508 0 0 0 
84 3 1 -28.7395 -7.56923 -45.0444 0 0 0 
82 1 1 -25.8494 -13.9052 -46.9758 0 0 0 
83 2 1 -26.2938 -10.3339 -45.0102 0 0 0 
85 1 1 -23.6128 -14.6695 -43.9595 0 0 0 
86 2 1 -20.4419 -16.9933 -45.2266 0 0 0 
88 1 1 -22.1657 -15.0259 -40.4653 0 0 0 
87 3 1 -17.1359 -17.0374 -47.2416 0 0 0 
89 2 1 -18.3749 -15.4528 -39.0696 0 0 0 
90 3 1 -14.6851 -15.868 -39.1749 0 0 0 
91 1 1 -21.6535 -15.3279 -36.533 0 0 0 
94 1 1 -20.591 -14.9834 -32.8454 0 0 0 
95 2 1 -17.493 -13.098 -31.1559 0 0 0 
97 1 1 -20.2155 -14.8936 -29.0287 0 0 0 
96 3 1 -14.1371 -12.2526 -30.255 0 0 0 
93 3 1 -29.0434 -14.6213 -33.9909 0 0 0 
92 2 1 -25.3189 -14.7746 -34.8403 0 0 0 
100 1 1 -18.6463 -14.2816 -25.4935 0 0 0 
103 1 1 -18.3346 -13.1939 -21.7019 0 0 0 
101 2 1 -15.0747 -15.6377 -24.0963 0 0 0 
102 3 1 -12.7228 -18.5462 -23.2808 0 0 0 
99 3 1 -20.7424 -17.8867 -22.4675 0 0 0 
98 2 1 -22.0286 -16.4421 -25.7861 0 0 0 
104 2 1 -21.5612 -13.1201 -19.499 0 0 0 
106 1 1 -17.126 -12.0782 -18.2898 0 0 0 
108 3 1 -10.3664 -9.60561 -15.8256 0 0 0 
107 2 1 -13.1689 -11.3078 -17.8412 0 0 0 
111 3 1 -23.6148 -11.3985 -11.1745 0 0 0 
110 2 1 -19.9972 -10.6257 -12.2438 0 0 0 
105 3 1 -23.8496 -12.2648 -16.4937 0 0 0 
109 1 1 -16.687 -11.3403 -14.4562 0 0 0 
113 2 1 -10.9702 -10.1785 -9.98976 0 0 0 
114 3 1 -7.51494 -9.58554 -9.72348 0 0 0 
112 1 1 -15.0266 -10.4178 -10.9857 0 0 0 
115 1 1 -14.8754 -9.45117 -7.30181 0 0 0 
116 2 1 -16.7356 -9.43551 -3.69587 0 0 0 
123 3 1 -3.69558 -5.96054 -9.13323 0 0 0 
117 3 1 -17.25 -10.703 -0.0617562 0 0 0 
118 1 1 -12.4388 -7.32963 -5.00591 0 0 0 
119 2 1 -11.6431 -8.20637 -1.17998 0 0 0 
120 3 1 -12.2371 -10.6461 1.25969 0 0 0 
121 1 1 -9.45148 -4.93096 -4.26858 0 0 0 
124 1 1 -6.91404 -2.81245 -2.20238 0 0 0 
125 2 1 -6.54613 -2.89115 1.76522 0 0 0 
122 2 1 -6.55633 -5.05427 -7.08808 0 0 0 
129 3 1 -0.86799 2.2318 -7.86047 0 0 0 
128 2 1 -1.91362 0.787944 -4.86186 0 0 0 
127 1 1 -3.82963 -0.318522 -1.33929 0 0 0 
130 1 1 -0.881063 1.99592 -0.0716962 0 0 0 
133 1 1 1.88921 3.84628 1.779 0 0 0 
131 2 1 -1.45939 3.5073 3.71896 0 0 0 
138 3 1 -0.980241 8.7149 9.44969 0 0 0 
137 2 1 1.20356 8.35801 6.84694 0 0 0 
134 2 1 5.66444 2.9517 0.780144 0 0 0 
135 3 1 8.02153 2.12719 -1.68793 0 0 0 
136 1 1 3.64192 6.41133 4.27595 0 0 0 
144 3 1 14.9049 12.3864 5.58936 0 0 0 
126 3 1 -5.70735 -4.24535 4.88276 0 0 0 
132 3 1 -2.08305 3.31863 7.50933 0 0 0 
139 1 1 5.66525 8.18583 6.98798 0 0 0 
140 2 1 4.59016 8.50626 10.957 0 0 0 
141 3 1 3.50663 7.94719 14.5309 0 0 0 
143 2 1 11.4747 12.2779 7.29029 0 0 0 
142 1 1 8.03494 10.7119 8.68755 0 0 0 
145 1 1 9.43289 12.9462 11.5921 0 0 0 
146 2 1 7.18994 14.2722 14.7513 0 0 0 
148 1 1 12.0136 15.32 13.4771 0 0 0 
149 2 1 15.9439 15.265 12.2559 0 0 0 
150 3 1 19.5663 14.1767 13.1166 0 0 0 
151 1 1 14.1762 17.3718 15.8547 0 0 0 
147 3 1 3.42109 15.3913 14.5297 0 0 0 
152 2 1 12.7786 19.6974 18.8711 0 0 0 
153 3 1 10.269 22.2039 20.2221 0 0 0 
159 3 1 15.1234 25.7705 25.0616 0 0 0 
158 2 1 16.3848 22.7216 23.1456 0 0 0 
154 1 1 16.9145 19.2542 17.7065 0 0 0 
157 1 1 18.8951 21.3813 20.3458 0 0 0 
155 2 1 20.3807 17.4878 17.9104 0 0 0 
160 1 1 21.3609 22.7691 23.0142 0 0 0 
156 3 1 22.869 16.2678 20.2241 0 0 0 
161 2 1 25.0528 23.0588 21.3142 0 0 0 
162 3 1 27.018 20.6481 19.171 0 0 0 
164 2 1 20.3885 27.3567 27.7801 0 0 0 
163 1 1 22.4483 23.9862 26.5857 0 0 0 
166 1 1 23.7402 23.9667 30.2129 0 0 0 
169 1 1 24.5268 24.86 33.8863 0 0 0 
167 2 1 24.6254 20.5079 32.0214 0 0 0 
168 3 1 24.7303 16.8367 30.7063 0 0 0 
165 3 1 17.8921 29.6579 28.4902 0 0 0 
170 2 1 23.0096 28.0233 35.5937 0 0 0 
173 2 1 25.4905 26.5941 40.7806 0 0 0 
172 1 1 25.716 24.2576 37.4852 0 0 0 
175 1 1 27.4945 22.1118 40.3145 0 0 0 
176 2 1 28.7564 24.3139 43.5226 0 0 0 
181 1 1 30.9808 18.1091 45.7392 0 0 0 
178 1 1 29.223 19.5913 42.6252 0 0 0 
179 2 1 29.7944 15.749 41.5328 0 0 0 
180 3 1 29.0635 12.7147 39.4125 0 0 0 
174 3 1 24.355 28.0445 43.9783 0 0 0 
171 3 1 23.7443 30.3545 32.6186 0 0 0 
186 3 1 31.1267 20.027 56.1035 0 0 0 
177 3 1 29.9727 27.4565 44.5762 0 0 0 
184 1 1 32.3971 17.5121 49.2636 0 0 0 
185 2 1 32.6103 19.5603 52.5572 0 0 0 
187 1 1 34.0028 15.353 52.0037 0 0 0 
182 2 1 33.7859 15.2965 45.8387 0 0 0 
183 3 1 35.4744 12.3905 46.544 0 0 0 
188 2 1 37.4496 13.422 51.2708 0 0 0 
189 3 1 41.1263 14.5048 51.0981 0 0 0 
207 3 1 41.8071 1.53891 74.6823 0 0 0 
190 1 1 35.1134 13.8224 55.3935 0 0 0 
191 2 1 31.9588 14.0187 57.835 0 0 0 
192 3 1 30.416 16.4227 60.001 0 0 0 
195 3 1 43.7303 14.0183 58.2896 0 0 0 
193 1 1 36.5319 12.3722 58.7737 0 0 0 
194 2 1 40.6536 12.5574 59.2027 0 0 0 
196 1 1 37.5825 10.7615 62.1301 0 0 0 
199 1 1 37.6418 9.20377 65.7255 0 0 0 
197 2 1 41.3798 10.5898 63.5167 0 0 0 
198 3 1 43.9476 8.74926 65.7943 0 0 0 
213 3 1 50.2545 3.18381 73.5083 0 0 0 
201 3 1 32.1878 4.56229 67.8483 0 0 0 
205 1 1 40.1034 8.69937 73.0091 0 0 0 
200 2 1 34.4871 7.35376 67.5429 0 0 0 
204 3 1 37.8445 1.28487 71.0586 0 0 0 
203 2 1 37.7806 4.74803 71.0819 0 0 0 
202 1 1 38.635 8.49777 69.4288 0 0 0 
209 2 1 41.5627 9.8508 80.2235 0 0 0 
206 2 1 41.8448 5.18357 73.8267 0 0 0 
208 1 1 41.9202 8.36902 76.3638 0 0 0 
211 1 1 44.9492 6.64466 78.0348 0 0 0 
212 2 1 47.2703 4.24113 75.6123 0 0 0 
215 2 1 49.973 2.80341 79.5509 0 0 0 
216 3 1 53.4379 2.41664 81.0846 0 0 0 
210 3 1 41.5537 9.38874 83.9887 0 0 0 
220 1 1 54.0365 5.51078 85.0748 0 0 0 
217 1 1 51.1743 6.16664 82.5855 0 0 0 
218 2 1 53.3993 9.44666 83.1671 0 0 0 
219 3 1 54.263 13.0821 83.3855 0 0 0 
214 1 1 47.9487 6.12019 80.3421 0 0 0 
225 3 1 60.2662 -0.555242 88.6244 0 0 0 
224 2 1 59.1697 2.93382 88.9595 0 0 0 
221 2 1 55.7644 1.93941 84.9322 0 0 0 
222 3 1 55.5183 -1.55887 85.3847 0 0 0 
227 2 1 58.7518 10.3619 92.8217 0 0 0 