ITEM: TIMESTEP
0
ITEM: NUMBER OF ATOMS
264
ITEM: BOX BOUNDS pp pp pp
-200.158 200.158
-200.158 200.158
-200.158 200.158
ITEM: ATOMS id type mol x y z ix iy iz 
3 3 1 -32.3598 -32.2713 -150.454 0 0 0 
1 1 1 -25.5242 -31.5069 -153.568 0 0 0 
2 2 1 -28.9137 -31.5653 -151.696 0 0 0 
5 2 1 -21.4112 -31.7109 -150.947 0 0 0 
6 3 1 -17.824 -32.6817 -150.122 0 0 0 
9 3 1 -31.1887 -30.8009 -143.417 0 0 0 
4 1 1 -24.9387 -30.7717 -150.049 0 0 0 
7 1 1 -24.3531 -30.0365 -146.531 0 0 0 
8 2 1 -27.7427 -30.095 -144.66 0 0 0 
11 2 1 -20.2401 -30.2406 -143.91 0 0 0 
12 3 1 -16.6529 -31.2114 -143.085 0 0 0 
10 1 1 -23.7676 -29.3014 -143.012 0 0 0 
13 1 1 -23.1821 -28.5662 -139.494 0 0 0 
14 2 1 -26.5716 -28.6247 -137.623 0 0 0 
15 3 1 -30.0177 -29.3306 -136.38 0 0 0 
16 1 1 -22.5965 -27.831 -135.976 0 0 0 
19 1 1 -22.011 -27.0959 -132.457 0 0 0 
20 2 1 -25.4005 -27.1544 -130.586 0 0 0 
17 2 1 -19.0691 -28.7702 -136.873 0 0 0 
18 3 1 -15.4819 -29.7411 -136.048 0 0 0 
21 3 1 -28.8466 -27.8603 -129.344 0 0 0 
22 1 1 -21.4255 -26.3607 -128.939 0 0 0 
25 1 1 -20.84 -25.6256 -125.42 0 0 0 
26 2 1 -24.2295 -25.684 -123.549 0 0 0 
27 3 1 -27.6755 -26.39 -122.307 0 0 0 
28 1 1 -20.2544 -24.8904 -121.902 0 0 0 
23 2 1 -17.898 -27.2999 -129.837 0 0 0 
24 3 1 -14.3108 -28.2708 -129.011 0 0 0 
29 2 1 -16.7269 -25.8296 -122.8 0 0 0 
30 3 1 -13.1397 -26.8004 -121.975 0 0 0 
32 2 1 -23.0584 -24.2137 -116.512 0 0 0 
33 3 1 -26.5045 -24.9196 -115.27 0 0 0 
31 1 1 -19.6689 -24.1552 -118.384 0 0 0 
34 1 1 -19.0834 -23.4201 -114.865 0 0 0 
35 2 1 -15.5559 -24.3592 -115.763 0 0 0 
36 3 1 -11.9687 -25.3301 -114.938 0 0 0 
37 1 1 -18.4978 -22.6849 -111.347 0 0 0 
38 2 1 -21.8874 -22.7434 -109.475 0 0 0 
39 3 1 -25.3334 -23.4493 -108.233 0 0 0 
44 2 1 -20.7163 -21.2731 -102.439 0 0 0 
45 3 1 -24.1623 -21.979 -101.196 0 0 0 
40 1 1 -17.9123 -21.9497 -107.828 0 0 0 
41 2 1 -14.3848 -22.8889 -108.726 0 0 0 
42 3 1 -10.7976 -23.8598 -107.901 0 0 0 
43 1 1 -17.3268 -21.2146 -104.31 0 0 0 
46 1 1 -16.7412 -20.4794 -100.792 0 0 0 
47 2 1 -13.2138 -21.4186 -101.689 0 0 0 
48 3 1 -9.62656 -22.3895 -100.864 0 0 0 
51 3 1 -22.9913 -20.5086 -94.1596 0 0 0 
54 3 1 -8.4555 -20.9191 -93.8274 0 0 0 
49 1 1 -16.1557 -19.7443 -97.2732 0 0 0 
50 2 1 -19.5452 -19.8027 -95.4019 0 0 0 
52 1 1 -15.5702 -19.0091 -93.7548 0 0 0 
53 2 1 -12.0427 -19.9483 -94.6525 0 0 0 
55 1 1 -14.9846 -18.2739 -90.2364 0 0 0 
57 3 1 -21.8202 -19.0383 -87.1228 0 0 0 
63 3 1 -20.6492 -17.568 -80.0861 0 0 0 
56 2 1 -18.3742 -18.3324 -88.3651 0 0 0 
58 1 1 -14.3991 -17.5388 -86.718 0 0 0 
59 2 1 -10.8717 -18.4779 -87.6157 0 0 0 
61 1 1 -13.8136 -16.8036 -83.1996 0 0 0 
62 2 1 -17.2031 -16.8621 -81.3283 0 0 0 
60 3 1 -7.28443 -19.4488 -86.7906 0 0 0 
65 2 1 -9.70059 -17.0076 -80.5789 0 0 0 
64 1 1 -13.228 -16.0684 -79.6812 0 0 0 
67 1 1 -12.6425 -15.3333 -76.1628 0 0 0 
68 2 1 -16.032 -15.3918 -74.2915 0 0 0 
69 3 1 -19.4781 -16.0977 -73.0493 0 0 0 
70 1 1 -12.057 -14.5981 -72.6444 0 0 0 
66 3 1 -6.11337 -17.9785 -79.7538 0 0 0 
71 2 1 -8.52953 -15.5373 -73.5421 0 0 0 
72 3 1 -4.94231 -16.5082 -72.7169 0 0 0 
73 1 1 -11.4715 -13.8629 -69.126 0 0 0 
74 2 1 -14.861 -13.9214 -67.2547 0 0 0 
75 3 1 -18.3071 -14.6273 -66.0125 0 0 0 
76 1 1 -10.8859 -13.1278 -65.6076 0 0 0 
79 1 1 -10.3004 -12.3926 -62.0892 0 0 0 
80 2 1 -13.6899 -12.4511 -60.2179 0 0 0 
77 2 1 -7.35847 -14.067 -66.5053 0 0 0 
78 3 1 -3.77125 -15.0378 -65.6801 0 0 0 
81 3 1 -17.136 -13.157 -58.9757 0 0 0 
86 2 1 -12.5189 -10.9808 -53.1811 0 0 0 
87 3 1 -15.9649 -11.6867 -51.9389 0 0 0 
82 1 1 -9.71487 -11.6575 -58.5708 0 0 0 
83 2 1 -6.18741 -12.5966 -59.4685 0 0 0 
84 3 1 -2.60019 -13.5675 -58.6433 0 0 0 
85 1 1 -9.12934 -10.9223 -55.0524 0 0 0 
88 1 1 -8.54381 -10.1871 -51.534 0 0 0 
89 2 1 -5.01635 -11.1263 -52.4317 0 0 0 
90 3 1 -1.42913 -12.0972 -51.6065 0 0 0 
93 3 1 -14.7939 -10.2164 -44.9021 0 0 0 
96 3 1 -0.258066 -10.6268 -44.5697 0 0 0 
92 2 1 -11.3478 -9.51044 -46.1443 0 0 0 
91 1 1 -7.95828 -9.45196 -48.0156 0 0 0 
94 1 1 -7.37275 -8.7168 -44.4972 0 0 0 
95 2 1 -3.84528 -9.65598 -45.3949 0 0 0 
97 1 1 -6.78722 -7.98163 -40.9788 0 0 0 
98 2 1 -10.1767 -8.04012 -39.1075 0 0 0 
99 3 1 -13.6228 -8.74604 -37.8652 0 0 0 
105 3 1 -12.4517 -7.27571 -30.8284 0 0 0 
100 1 1 -6.20169 -7.24647 -37.4604 0 0 0 
101 2 1 -2.67422 -8.18566 -38.3581 0 0 0 
103 1 1 -5.61616 -6.51131 -33.942 0 0 0 
104 2 1 -9.00567 -6.56979 -32.0707 0 0 0 
106 1 1 -5.03063 -5.77614 -30.4236 0 0 0 
107 2 1 -1.50316 -6.71533 -31.3213 0 0 0 
102 3 1 0.912995 -9.15652 -37.5329 0 0 0 
108 3 1 2.08406 -7.68619 -30.4962 0 0 0 
111 3 1 -11.2807 -5.80539 -23.7916 0 0 0 
109 1 1 -4.4451 -5.04098 -26.9052 0 0 0 
110 2 1 -7.83461 -5.09946 -25.0339 0 0 0 
112 1 1 -3.85956 -4.30582 -23.3868 0 0 0 
113 2 1 -0.332099 -5.245 -24.2845 0 0 0 
114 3 1 3.25512 -6.21586 -23.4593 0 0 0 
117 3 1 -10.1096 -4.33506 -16.7548 0 0 0 
115 1 1 -3.27403 -3.57065 -19.8684 0 0 0 
116 2 1 -6.66355 -3.62914 -17.9971 0 0 0 
118 1 1 -2.6885 -2.83549 -16.35 0 0 0 
121 1 1 -2.10297 -2.10033 -12.8316 0 0 0 
122 2 1 -5.49249 -2.15881 -10.9603 0 0 0 
119 2 1 0.838961 -3.77467 -17.2477 0 0 0 
120 3 1 4.42618 -4.74554 -16.4225 0 0 0 
125 2 1 2.01002 -2.30435 -10.2109 0 0 0 
123 3 1 -8.93856 -2.86473 -9.71804 0 0 0 
124 1 1 -1.51744 -1.36516 -9.31319 0 0 0 
127 1 1 -0.931911 -0.629998 -5.79479 0 0 0 
128 2 1 -4.32143 -0.688482 -3.92353 0 0 0 
129 3 1 -7.7675 -1.3944 -2.68124 0 0 0 
126 3 1 5.59724 -3.27521 -9.38575 0 0 0 
131 2 1 3.18108 -0.83402 -3.17409 0 0 0 
132 3 1 6.7683 -1.80488 -2.34895 0 0 0 
130 1 1 -0.34638 0.105164 -2.27638 0 0 0 
138 3 1 7.93936 -0.334554 4.68786 0 0 0 
134 2 1 -3.15037 0.781844 3.11327 0 0 0 
135 3 1 -6.59644 0.075921 4.35556 0 0 0 
133 1 1 0.23915 0.840328 1.24202 0 0 0 
136 1 1 0.82468 1.57549 4.76042 0 0 0 
137 2 1 4.35215 0.636306 3.86271 0 0 0 
139 1 1 1.41021 2.31066 8.27882 0 0 0 
140 2 1 -1.97931 2.25217 10.1501 0 0 0 
141 3 1 -5.42537 1.54625 11.3924 0 0 0 
146 2 1 -0.808244 3.7225 17.1869 0 0 0 
147 3 1 -4.25431 3.01658 18.4292 0 0 0 
142 1 1 1.99574 3.04582 11.7972 0 0 0 
143 2 1 5.52321 2.10663 10.8995 0 0 0 
144 3 1 9.11042 1.13577 11.7247 0 0 0 
145 1 1 2.58127 3.78098 15.3156 0 0 0 
148 1 1 3.1668 4.51615 18.834 0 0 0 
149 2 1 6.69427 3.57696 17.9363 0 0 0 
150 3 1 10.2815 2.6061 18.7614 0 0 0 
153 3 1 -3.08325 4.4869 25.466 0 0 0 
151 1 1 3.75233 5.25131 22.3524 0 0 0 
152 2 1 0.362816 5.19283 24.2237 0 0 0 
154 1 1 4.33786 5.98647 25.8708 0 0 0 
155 2 1 7.86533 5.04729 24.9731 0 0 0 
157 1 1 4.9234 6.72164 29.3892 0 0 0 
156 3 1 11.4525 4.07643 25.7983 0 0 0 
159 3 1 -1.91219 5.95723 32.5028 0 0 0 
165 3 1 -0.74113 7.42756 39.5396 0 0 0 
158 2 1 1.53388 6.66315 31.2605 0 0 0 
160 1 1 5.50893 7.4568 32.9076 0 0 0 
161 2 1 9.03639 6.51761 32.0099 0 0 0 
163 1 1 6.09446 8.19196 36.426 0 0 0 
164 2 1 2.70494 8.13348 38.2973 0 0 0 
166 1 1 6.67999 8.92713 39.9444 0 0 0 
162 3 1 12.6236 5.54675 32.8351 0 0 0 
167 2 1 10.2074 7.98794 39.0467 0 0 0 
168 3 1 13.7947 7.01708 39.8719 0 0 0 
169 1 1 7.26552 9.66229 43.4628 0 0 0 
170 2 1 3.876 9.60381 45.3341 0 0 0 
171 3 1 0.429931 8.89788 46.5764 0 0 0 
173 2 1 11.3785 9.45827 46.0835 0 0 0 
174 3 1 14.9657 8.48741 46.9087 0 0 0 
172 1 1 7.85105 10.3974 46.9812 0 0 0 
180 3 1 16.1368 9.95773 53.9455 0 0 0 
175 1 1 8.43658 11.1326 50.4996 0 0 0 
176 2 1 5.04706 11.0741 52.3709 0 0 0 
177 3 1 1.60099 10.3682 53.6132 0 0 0 
178 1 1 9.02211 11.8678 54.018 0 0 0 
181 1 1 9.60764 12.6029 57.5364 0 0 0 
182 2 1 6.21812 12.5445 59.4077 0 0 0 
179 2 1 12.5496 10.9286 53.1203 0 0 0 
183 3 1 2.77205 11.8385 60.65 0 0 0 
188 2 1 7.38919 14.0148 66.4445 0 0 0 
189 3 1 3.94312 13.3089 67.6868 0 0 0 
184 1 1 10.1932 13.3381 61.0548 0 0 0 
185 2 1 13.7206 12.3989 60.1571 0 0 0 
186 3 1 17.3078 11.4281 60.9823 0 0 0 
187 1 1 10.7787 14.0733 64.5732 0 0 0 
190 1 1 11.3642 14.8084 68.0916 0 0 0 
191 2 1 14.8917 13.8692 67.1939 0 0 0 
192 3 1 18.4789 12.8984 68.0191 0 0 0 
194 2 1 8.56025 15.4851 73.4813 0 0 0 
195 3 1 5.11418 14.7792 74.7236 0 0 0 
193 1 1 11.9498 15.5436 71.61 0 0 0 
196 1 1 12.5353 16.2788 75.1284 0 0 0 
197 2 1 16.0628 15.3396 74.2307 0 0 0 
198 3 1 19.65 14.3687 75.0559 0 0 0 
199 1 1 13.1208 17.0139 78.6468 0 0 0 
200 2 1 9.73131 16.9554 80.5181 0 0 0 
201 3 1 6.28524 16.2495 81.7604 0 0 0 
207 3 1 7.4563 17.7198 88.7972 0 0 0 
202 1 1 13.7064 17.7491 82.1652 0 0 0 
203 2 1 17.2338 16.8099 81.2675 0 0 0 
205 1 1 14.2919 18.4842 85.6836 0 0 0 
206 2 1 10.9024 18.4258 87.5549 0 0 0 
208 1 1 14.8774 19.2194 89.202 0 0 0 
209 2 1 18.4049 18.2802 88.3043 0 0 0 
204 3 1 20.821 15.839 82.0927 0 0 0 
210 3 1 21.9921 17.3094 89.1295 0 0 0 
213 3 1 8.62736 19.1902 95.834 0 0 0 
211 1 1 15.4629 19.9546 92.7204 0 0 0 
212 2 1 12.0734 19.8961 94.5917 0 0 0 
215 2 1 19.5759 19.7506 95.3411 0 0 0 
216 3 1 23.1632 18.7797 96.1663 0 0 0 
214 1 1 16.0485 20.6897 96.2388 0 0 0 
217 1 1 16.634 21.4249 99.7572 0 0 0 
219 3 1 9.79842 20.6605 102.871 0 0 0 
218 2 1 13.2445 21.3664 101.628 0 0 0 
220 1 1 17.2195 22.1601 103.276 0 0 0 
223 1 1 17.8051 22.8952 106.794 0 0 0 
224 2 1 14.4155 22.8367 108.665 0 0 0 
225 3 1 10.9695 22.1308 109.907 0 0 0 
221 2 1 20.747 21.2209 102.378 0 0 0 
222 3 1 24.3342 20.25 103.203 0 0 0 
227 2 1 21.9181 22.6912 109.415 0 0 0 
226 1 1 18.3906 23.6304 110.312 0 0 0 
229 1 1 18.9761 24.3656 113.831 0 0 0 
230 2 1 15.5866 24.3071 115.702 0 0 0 
231 3 1 12.1405 23.6012 116.944 0 0 0 
232 1 1 19.5617 25.1007 117.349 0 0 0 
228 3 1 25.5053 21.7203 110.24 0 0 0 
233 2 1 23.0891 24.1615 116.451 0 0 0 
234 3 1 26.6763 23.1907 117.277 0 0 0 
236 2 1 16.7577 25.7774 122.739 0 0 0 
237 3 1 13.3116 25.0715 123.981 0 0 0 
242 2 1 17.9287 27.2477 129.776 0 0 0 
235 1 1 20.1472 25.8359 120.868 0 0 0 
238 1 1 20.7327 26.571 124.386 0 0 0 
239 2 1 24.2602 25.6319 123.488 0 0 0 
240 3 1 27.8474 24.661 124.313 0 0 0 
241 1 1 21.3182 27.3062 127.904 0 0 0 
243 3 1 14.4827 26.5418 131.018 0 0 0 
248 2 1 19.0998 28.7181 136.812 0 0 0 
249 3 1 15.6537 28.0121 138.055 0 0 0 
244 1 1 21.9038 28.0414 131.423 0 0 0 
245 2 1 25.4312 27.1022 130.525 0 0 0 
246 3 1 29.0185 26.1313 131.35 0 0 0 
247 1 1 22.4893 28.7765 134.941 0 0 0 
250 1 1 23.0748 29.5117 138.46 0 0 0 
251 2 1 26.6023 28.5725 137.562 0 0 0 
252 3 1 30.1895 27.6017 138.387 0 0 0 
255 3 1 16.8248 29.4825 145.091 0 0 0 
258 3 1 31.3606 29.072 145.424 0 0 0 
253 1 1 23.6604 30.2469 141.978 0 0 0 
254 2 1 20.2709 30.1884 143.849 0 0 0 
256 1 1 24.2459 30.982 145.496 0 0 0 
257 2 1 27.7734 30.0428 144.599 0 0 0 
259 1 1 24.8314 31.7172 149.015 0 0 0 
261 3 1 17.9959 30.9528 152.128 0 0 0 
260 2 1 21.4419 31.6587 150.886 0 0 0 
262 1 1 25.417 32.4524 152.533 0 0 0 
263 2 1 28.9444 31.5132 151.636 0 0 0 
264 3 1 32.5316 30.5423 152.461 0 0 0 
ITEM: TIMESTEP
100000
ITEM: NUMBER OF ATOMS
264
ITEM: BOX BOUNDS pp pp pp
-200.158 200.158
-200.158 200.158
-200.158 200.158
ITEM: ATOMS id type mol x y z ix iy iz 
9 3 1 -67.0496 -10.3118 -102.307 0 0 0 
6 3 1 -75.0778 -7.0022 -110.852 0 0 0 
2 2 1 -78.4341 -16.4468 -105.85 0 0 0 
1 1 1 -75.1789 -16.6242 -108.398 0 0 0 
4 1 1 -74.9841 -13.1409 -106.462 0 0 0 
7 1 1 -73.9908 -10.7183 -103.729 0 0 0 
5 2 1 -74.4515 -9.85032 -108.679 0 0 0 
11 2 1 -77.1043 -5.52113 -100.461 0 0 0 
10 1 1 -73.8563 -7.86226 -101.09 0 0 0 
8 2 1 -70.571 -10.5637 -101.975 0 0 0 
12 3 1 -80.4638 -4.33864 -99.0772 0 0 0 
3 3 1 -81.1034 -17.6835 -104.011 0 0 0 
18 3 1 -69.3919 -10.6083 -91.1661 0 0 0 
13 1 1 -72.6985 -5.44787 -98.2425 0 0 0 
14 2 1 -73.9979 -1.81584 -97.5575 0 0 0 
16 1 1 -70.421 -4.44626 -95.2886 0 0 0 
17 2 1 -68.7374 -7.41391 -93.1252 0 0 0 
19 1 1 -68.2166 -2.68236 -92.7262 0 0 0 
15 3 1 -74.3909 1.66687 -98.1923 0 0 0 
21 3 1 -65.3758 4.50101 -93.4143 0 0 0 
20 2 1 -67.1805 1.32977 -92.5107 0 0 0 
23 2 1 -63.0039 -5.93021 -89.4364 0 0 0 
24 3 1 -62.0602 -9.04314 -87.4264 0 0 0 
22 1 1 -65.6492 -2.91265 -89.863 0 0 0 
25 1 1 -63.5379 -1.59501 -86.7757 0 0 0 
28 1 1 -60.8017 -1.19909 -83.9167 0 0 0 
26 2 1 -63.6109 2.17226 -85.6334 0 0 0 
27 3 1 -61.1739 5.12616 -84.8887 0 0 0 
29 2 1 -57.937 -4.04707 -83.6127 0 0 0 
30 3 1 -55.2692 -6.68996 -84.4521 0 0 0 
33 3 1 -55.6025 -5.97864 -77.5214 0 0 0 
32 2 1 -56.4359 -2.46732 -78.9853 0 0 0 
31 1 1 -58.2319 0.195221 -81.5025 0 0 0 
38 2 1 -51.6052 -1.03251 -75.7502 0 0 0 
39 3 1 -51.0307 -4.91323 -75.7616 0 0 0 
44 2 1 -46.6458 -1.31396 -70.3572 0 0 0 
45 3 1 -48.4447 -1.99049 -67.3939 0 0 0 
72 3 1 -7.64132 -4.04375 -66.8415 0 0 0 
74 2 1 -6.79737 2.7774 -64.5577 0 0 0 
75 3 1 -3.98805 4.41884 -66.1885 0 0 0 
34 1 1 -55.5701 2.18297 -79.3959 0 0 0 
35 2 1 -54.7904 5.8929 -78.1664 0 0 0 
37 1 1 -52.3057 2.16658 -77.5158 0 0 0 
36 3 1 -55.3068 8.96979 -76.0482 0 0 0 
40 1 1 -48.8717 2.82336 -75.7561 0 0 0 
41 2 1 -45.9851 5.74048 -76.6354 0 0 0 
43 1 1 -46.1731 1.55695 -73.3308 0 0 0 
46 1 1 -42.3027 1.65698 -72.1263 0 0 0 
42 3 1 -42.6318 5.93275 -75.8767 0 0 0 
50 2 1 -37.3596 -2.31989 -68.4789 0 0 0 
51 3 1 -36.7775 -4.47508 -65.541 0 0 0 
49 1 1 -38.6387 0.510444 -70.8754 0 0 0 
59 2 1 -25.0313 -1.84399 -68.105 0 0 0 
60 3 1 -25.3747 -3.70436 -64.7664 0 0 0 
67 1 1 -15.9548 -0.610044 -68.7771 0 0 0 
68 2 1 -13.7875 -4.11614 -68.9682 0 0 0 
71 2 1 -9.41559 -1.0013 -66.7888 0 0 0 
70 1 1 -13.0782 0.688114 -66.509 0 0 0 
69 3 1 -12.7777 -7.71608 -68.3542 0 0 0 
76 1 1 -8.3953 2.70082 -60.7459 0 0 0 
80 2 1 -1.96054 4.4974 -59.6566 0 0 0 
81 3 1 0.107413 7.05319 -61.787 0 0 0 
79 1 1 -5.71208 3.88678 -58.2313 0 0 0 
48 3 1 -38.6784 8.4215 -71.469 0 0 0 
47 2 1 -39.9696 4.95619 -71.8447 0 0 0 
52 1 1 -34.6696 1.05157 -70.5955 0 0 0 
53 2 1 -33.6981 4.73693 -71.7026 0 0 0 
55 1 1 -30.8384 1.62629 -69.89 0 0 0 
56 2 1 -29.603 4.88375 -72.0615 0 0 0 
58 1 1 -27.0387 0.76991 -70.506 0 0 0 
61 1 1 -23.1665 1.06059 -71.3541 0 0 0 
64 1 1 -19.425 0.630002 -70.0909 0 0 0 
62 2 1 -21.0163 3.24528 -74.0647 0 0 0 
65 2 1 -17.6517 3.74759 -69.5933 0 0 0 
73 1 1 -10.6489 1.88768 -63.7671 0 0 0 
66 3 1 -16.5556 7.00372 -67.9397 0 0 0 
77 2 1 -10.0615 2.16039 -57.0213 0 0 0 
54 3 1 -33.1607 7.18653 -74.6059 0 0 0 
57 3 1 -27.3629 7.45716 -71.255 0 0 0 
63 3 1 -18.6222 5.8362 -74.6759 0 0 0 
84 3 1 -6.24777 9.73803 -50.3899 0 0 0 
87 3 1 -0.102427 11.3172 -49.8499 0 0 0 
88 1 1 3.45712 5.09402 -52.5277 0 0 0 
86 2 1 0.0123161 7.72977 -50.0147 0 0 0 
83 2 1 -4.53633 8.20682 -52.9979 0 0 0 
82 1 1 -3.42106 5.29538 -55.5966 0 0 0 
85 1 1 -0.129206 5.78937 -53.5878 0 0 0 
91 1 1 6.23959 4.33641 -49.9004 0 0 0 
78 3 1 -11.8825 2.45861 -53.9791 0 0 0 
89 2 1 7.12111 4.92596 -54.4116 0 0 0 
90 3 1 9.73582 6.08055 -56.9036 0 0 0 
92 2 1 10.2761 4.87355 -50.0482 0 0 0 
93 3 1 11.7058 8.24525 -49.2839 0 0 0 
99 3 1 4.14332 2.12291 -36.5699 0 0 0 
97 1 1 8.08763 1.77375 -42.9773 0 0 0 
100 1 1 9.51324 -0.0846113 -40.0543 0 0 0 
98 2 1 5.05231 1.65111 -40.2939 0 0 0 
94 1 1 7.70516 3.19569 -46.564 0 0 0 
95 2 1 11.8103 2.94663 -46.682 0 0 0 
96 3 1 15.0949 1.57546 -47.0195 0 0 0 
101 2 1 7.55667 -2.33162 -37.3448 0 0 0 
102 3 1 6.39388 -3.03239 -34.1856 0 0 0 
103 1 1 12.0554 -1.60469 -37.6606 0 0 0 
107 2 1 11.7655 -3.05056 -30.8297 0 0 0 
104 2 1 15.7645 -1.99907 -39.1967 0 0 0 
105 3 1 19.1172 -2.78655 -41.1715 0 0 0 
106 1 1 13.8425 -2.90702 -34.4563 0 0 0 
109 1 1 16.6924 -4.49059 -32.3115 0 0 0 
110 2 1 20.5774 -4.27579 -32.7933 0 0 0 
111 3 1 23.3809 -4.72611 -34.7983 0 0 0 
108 3 1 9.72751 -3.62596 -28.0274 0 0 0 
112 1 1 18.5151 -6.51992 -29.5243 0 0 0 
115 1 1 19.2744 -8.12444 -26.0125 0 0 0 
118 1 1 18.3584 -9.34935 -22.4633 0 0 0 
113 2 1 21.5391 -8.33225 -30.3191 0 0 0 
116 2 1 22.5012 -9.02451 -24.1979 0 0 0 
117 3 1 24.4352 -11.7667 -24.0877 0 0 0 
114 3 1 23.7975 -9.18245 -32.8544 0 0 0 
125 2 1 11.7551 -12.7124 -16.9443 0 0 0 
128 2 1 9.31901 -12.8338 -13.4444 0 0 0 
126 3 1 8.81389 -13.3136 -19.2526 0 0 0 
124 1 1 15.0262 -11.1198 -15.8695 0 0 0 
127 1 1 13.0283 -11.979 -12.629 0 0 0 
121 1 1 17.2475 -9.51835 -18.7816 0 0 0 
122 2 1 17.9107 -6.5377 -16.1089 0 0 0 
123 3 1 19.9053 -4.21386 -14.1645 0 0 0 
119 2 1 19.9274 -12.8685 -21.256 0 0 0 
120 3 1 21.8891 -14.6578 -19.081 0 0 0 
129 3 1 6.55833 -14.377 -15.2036 0 0 0 
132 3 1 4.70539 -11.1 -6.83949 0 0 0 
131 2 1 7.55182 -13.0088 -8.57314 0 0 0 
130 1 1 11.6058 -12.4444 -8.98005 0 0 0 
136 1 1 8.68166 -13.5673 -2.07894 0 0 0 
133 1 1 10.9107 -12.6406 -5.12689 0 0 0 
134 2 1 12.9096 -11.5294 -1.6772 0 0 0 
135 3 1 15.1575 -11.3897 0.971284 0 0 0 
144 3 1 7.18957 -22.0518 8.60156 0 0 0 
143 2 1 8.24197 -18.7177 7.20204 0 0 0 
138 3 1 4.15199 -18.5654 -1.85471 0 0 0 
137 2 1 5.09674 -15.1711 -1.5254 0 0 0 
139 1 1 8.49511 -13.8892 1.93751 0 0 0 
142 1 1 7.98651 -14.9385 5.75106 0 0 0 
140 2 1 10.9145 -11.1699 3.75392 0 0 0 
141 3 1 12.8225 -8.33699 4.33003 0 0 0 
148 1 1 5.76414 -14.6298 13.1709 0 0 0 
151 1 1 6.26697 -14.6329 16.9646 0 0 0 
149 2 1 2.28751 -16.0193 14.8756 0 0 0 
150 3 1 -0.725054 -18.4458 14.796 0 0 0 
152 2 1 3.26802 -16.2824 19.2434 0 0 0 
153 3 1 0.197884 -16.0072 20.9489 0 0 0 
145 1 1 6.73297 -14.1058 9.35184 0 0 0 
146 2 1 6.39465 -10.1252 10.3954 0 0 0 
147 3 1 8.37184 -7.02209 10.7045 0 0 0 
155 2 1 5.42126 -14.374 23.5125 0 0 0 
156 3 1 3.02723 -16.3746 25.3875 0 0 0 
154 1 1 7.76128 -14.0745 20.4791 0 0 0 
160 1 1 10.1735 -11.8972 27.2209 0 0 0 
157 1 1 10.0165 -13.0948 23.5654 0 0 0 
159 3 1 17.4674 -13.7996 24.6714 0 0 0 
158 2 1 13.9703 -12.6304 24.3132 0 0 0 
162 3 1 2.78648 -13.022 29.2695 0 0 0 
161 2 1 6.63196 -12.4571 29.1831 0 0 0 
168 3 1 9.59963 -16.0346 36.0856 0 0 0 
166 1 1 12.7732 -11.0258 34.46 0 0 0 
167 2 1 10.2115 -12.6216 37.1424 0 0 0 
165 3 1 19.3251 -12.247 29.276 0 0 0 
164 2 1 15.7527 -11.6731 30.4522 0 0 0 
163 1 1 11.8325 -11.2923 30.7596 0 0 0 
178 1 1 18.9238 -12.5023 47.8519 0 0 0 
169 1 1 14.1766 -9.99303 37.9494 0 0 0 
171 3 1 16.4603 -3.16631 37.9553 0 0 0 
170 2 1 15.3297 -6.35765 39.1451 0 0 0 
172 1 1 15.529 -10.0398 41.6212 0 0 0 
176 2 1 14.3753 -10.754 48.5495 0 0 0 
175 1 1 16.493 -11.1193 45.122 0 0 0 
173 2 1 15.8406 -6.45567 43.554 0 0 0 
174 3 1 12.7015 -5.53962 45.5606 0 0 0 
186 3 1 24.3176 -9.00455 59.5111 0 0 0 
192 3 1 34.9575 -18.5795 60.3272 0 0 0 
181 1 1 20.9062 -13.6149 50.9883 0 0 0 
179 2 1 16.712 -12.9836 51.239 0 0 0 
180 3 1 15.7011 -14.6146 54.4828 0 0 0 
182 2 1 23.5298 -16.6884 50.8944 0 0 0 
191 2 1 31.3518 -17.1747 60.411 0 0 0 
185 2 1 23.1814 -11.6799 57.4304 0 0 0 
188 2 1 26.1125 -19.758 57.5397 0 0 0 
184 1 1 22.928 -14.083 54.1693 0 0 0 
187 1 1 25.5059 -15.7665 56.5497 0 0 0 
190 1 1 28.1185 -15.1257 59.3541 0 0 0 
189 3 1 27.7752 -22.94 56.509 0 0 0 
177 3 1 11.5412 -11.4155 50.4611 0 0 0 
183 3 1 26.2222 -18.996 49.467 0 0 0 
199 1 1 29.0595 -7.61818 67.8892 0 0 0 
195 3 1 36.386 -13.8081 65.0743 0 0 0 
196 1 1 29.6839 -10.5697 65.3942 0 0 0 
193 1 1 29.4358 -13.0911 62.4639 0 0 0 
194 2 1 32.8361 -14.282 64.0108 0 0 0 
197 2 1 32.9398 -11.0208 67.9383 0 0 0 
210 3 1 18.604 3.45553 67.8707 0 0 0 
209 2 1 22.399 3.64025 67.2853 0 0 0 
213 3 1 21.2723 13.1507 67.0216 0 0 0 
216 3 1 26.191 16.4006 66.2801 0 0 0 
212 2 1 23.3703 9.90835 67.5089 0 0 0 
219 3 1 27.4699 20.9455 71.908 0 0 0 
198 3 1 35.5557 -12.108 69.9506 0 0 0 
200 2 1 29.5371 -8.37986 71.3459 0 0 0 
201 3 1 31.1143 -9.1291 74.4305 0 0 0 
202 1 1 28.3934 -4.1425 69.7102 0 0 0 
208 1 1 25.718 2.97525 69.6688 0 0 0 
206 2 1 28.5285 1.5422 73.761 0 0 0 
205 1 1 27.4047 -0.431413 70.559 0 0 0 
203 2 1 29.3091 -3.23312 73.5701 0 0 0 
207 3 1 31.1216 3.06431 76.1581 0 0 0 
204 3 1 29.5038 -4.35797 77.1091 0 0 0 
215 2 1 26.3684 13.8229 68.7156 0 0 0 
211 1 1 25.2434 6.85277 69.596 0 0 0 
217 1 1 25.5689 13.4572 73.5693 0 0 0 
214 1 1 25.4578 10.4804 70.8445 0 0 0 
221 2 1 26.7783 19.2003 77.3777 0 0 0 
218 2 1 25.8867 17.5763 72.9337 0 0 0 
220 1 1 25.6503 15.2465 77.0191 0 0 0 
222 3 1 27.1361 22.8083 76.9143 0 0 0 
225 3 1 23.7533 8.98169 84.152 0 0 0 
224 2 1 25.4604 11.2996 81.9622 0 0 0 
228 3 1 22.1951 11.4713 89.8564 0 0 0 
223 1 1 25.8992 14.8265 80.8674 0 0 0 
227 2 1 25.2861 12.6427 87.8745 0 0 0 
226 1 1 26.1317 15.0692 84.7198 0 0 0 
229 1 1 26.9686 16.7687 88.1231 0 0 0 
230 2 1 29.9325 19.5769 88.6698 0 0 0 
232 1 1 26.7175 18.4651 91.6544 0 0 0 
231 3 1 33.3243 21.1211 88.2766 0 0 0 
240 3 1 24.7687 28.4649 99.9059 0 0 0 
233 2 1 23.7657 17.2334 94.3372 0 0 0 
234 3 1 21.4483 17.2887 97.4208 0 0 0 
237 3 1 34.332 22.962 94.6649 0 0 0 
243 3 1 35.0614 19.5905 102.912 0 0 0 
235 1 1 26.9901 20.5229 94.9393 0 0 0 
236 2 1 30.9297 21.6826 95.8072 0 0 0 
238 1 1 28.0899 22.6591 97.9329 0 0 0 
239 2 1 26.6394 25.8832 98.5153 0 0 0 
241 1 1 29.9255 23.8803 101.017 0 0 0 
242 2 1 32.8437 22.0976 101.601 0 0 0 
244 1 1 31.2924 25.8544 104.176 0 0 0 
245 2 1 29.9998 28.6544 105.969 0 0 0 
247 1 1 33.6655 26.3673 107.213 0 0 0 
248 2 1 31.8666 27.2366 110.781 0 0 0 
249 3 1 28.8893 28.7772 112.669 0 0 0 
250 1 1 36.7903 26.4871 109.522 0 0 0 
253 1 1 39.4583 25.654 112.047 0 0 0 
246 3 1 30.3885 32.2328 107.347 0 0 0 
252 3 1 39.0019 30.4265 105.191 0 0 0 
251 2 1 40.0527 28.4352 107.919 0 0 0 
255 3 1 40.4984 20.2044 116.005 0 0 0 
256 1 1 41.6991 27.5018 114.592 0 0 0 
259 1 1 43.4485 30.5423 116.17 0 0 0 
262 1 1 44.2618 34.2827 117.038 0 0 0 
263 2 1 46.9944 36.577 114.776 0 0 0 
260 2 1 47.2323 29.9815 117.723 0 0 0 
254 2 1 41.4174 22.7602 113.846 0 0 0 
257 2 1 43.6932 25.9533 117.667 0 0 0 
258 3 1 44.4751 23.0088 120.007 0 0 0 
264 3 1 47.539 38.3864 111.631 0 0 0 
261 3 1 50.6936 29.8787 119.497 0 0 0 
ITEM: TIMESTEP
200000
ITEM: NUMBER OF ATOMS
264
ITEM: BOX BOUNDS pp pp pp
-200.158 200.158
-200.158 200.158
-200.158 200.158
ITEM: ATOMS id type mol x y z ix iy iz 
3 3 1 -45.0344 -6.19874 -117.857 0 0 0 
14 2 1 -52.1724 -3.96732 -108.705 0 0 0 
10 1 1 -47.2834 -0.330904 -110.924 0 0 0 
15 3 1 -54.5359 -6.57092 -110.204 0 0 0 
8 2 1 -45.4466 -4.67726 -112.701 0 0 0 
9 3 1 -46.7304 -8.19441 -112.217 0 0 0 
4 1 1 -42.2002 -0.362189 -116.532 0 0 0 
2 2 1 -41.6268 -4.93664 -118.587 0 0 0 
1 1 1 -39.3166 -1.57702 -118.737 0 0 0 
7 1 1 -44.9705 -0.867623 -113.878 0 0 0 
18 3 1 -56.9474 3.30973 -100.617 0 0 0 
21 3 1 -50.9156 -8.75144 -99.8573 0 0 0 
17 2 1 -54.5439 2.05839 -103.191 0 0 0 
20 2 1 -52.3214 -5.15277 -99.8182 0 0 0 
11 2 1 -47.0532 3.15126 -108.961 0 0 0 
13 1 1 -49.6317 -0.818925 -107.994 0 0 0 
16 1 1 -51.8456 -0.569466 -104.798 0 0 0 
19 1 1 -53.2569 -1.61195 -101.351 0 0 0 
12 3 1 -48.5371 6.05254 -107.8 0 0 0 
6 3 1 -43.7624 6.11721 -114.981 0 0 0 
5 2 1 -43.2479 3.35477 -117.021 0 0 0 
26 2 1 -58.6543 -6.0648 -93.8394 0 0 0 
27 3 1 -59.8717 -9.58155 -94.2048 0 0 0 
22 1 1 -54.5494 -1.95309 -97.6067 0 0 0 
23 2 1 -55.5242 1.55751 -95.7692 0 0 0 
25 1 1 -55.8771 -3.7839 -94.5576 0 0 0 
28 1 1 -55.4454 -4.48737 -90.7621 0 0 0 
29 2 1 -55.6343 -1.59255 -87.9104 0 0 0 
24 3 1 -55.8664 5.03656 -95.1938 0 0 0 
30 3 1 -57.1578 0.981492 -85.8357 0 0 0 
32 2 1 -56.4337 -10.0706 -87.0515 0 0 0 
33 3 1 -59.5089 -12.2357 -85.9785 0 0 0 
36 3 1 -57.6286 -13.8323 -81.2087 0 0 0 
35 2 1 -55.156 -10.998 -82.0751 0 0 0 
31 1 1 -55.0967 -6.29493 -87.3217 0 0 0 
34 1 1 -54.4576 -7.48794 -83.6713 0 0 0 
37 1 1 -52.834 -7.19774 -80.1664 0 0 0 
38 2 1 -51.9488 -3.25522 -79.9602 0 0 0 
39 3 1 -53.0244 0.437218 -79.7721 0 0 0 
40 1 1 -51.058 -6.45291 -76.7936 0 0 0 
43 1 1 -49.0703 -4.92149 -73.9658 0 0 0 
42 3 1 -49.8885 -12.1305 -72.2743 0 0 0 
41 2 1 -50.822 -8.99613 -73.8188 0 0 0 
46 1 1 -47.5948 -3.94268 -70.49 0 0 0 
45 3 1 -49.2997 0.980214 -71.2932 0 0 0 
44 2 1 -48.0775 -0.984611 -73.879 0 0 0 
47 2 1 -46.5302 -6.78162 -67.809 0 0 0 
48 3 1 -46.2531 -8.74404 -64.9696 0 0 0 
53 2 1 -44.5041 -4.93386 -60.7466 0 0 0 
49 1 1 -46.2858 -2.36696 -67.1628 0 0 0 
51 3 1 -44.6418 4.97085 -67.1761 0 0 0 
50 2 1 -44.8665 1.48322 -66.4495 0 0 0 
52 1 1 -45.1043 -1.8943 -63.4413 0 0 0 
55 1 1 -44.2815 -0.0462943 -60.3155 0 0 0 
56 2 1 -42.1368 3.48692 -60.0389 0 0 0 
57 3 1 -41.0207 6.99279 -61.0075 0 0 0 
54 3 1 -42.744 -7.99061 -61.3581 0 0 0 
60 3 1 -51.1454 -1.21405 -54.9821 0 0 0 
58 1 1 -44.4081 0.580017 -56.4838 0 0 0 
59 2 1 -47.7188 -0.432363 -54.4303 0 0 0 
61 1 1 -43.7824 2.1308 -53.007 0 0 0 
64 1 1 -42.2483 4.96622 -50.6606 0 0 0 
63 3 1 -47.3962 -0.924729 -47.8684 0 0 0 
62 2 1 -46.0392 1.3839 -50.0789 0 0 0 
65 2 1 -38.9613 7.13598 -51.4753 0 0 0 
66 3 1 -37.6951 10.4291 -53.0525 0 0 0 
67 1 1 -41.8915 7.32629 -47.5371 0 0 0 
71 2 1 -36.8419 12.5234 -47.1257 0 0 0 
70 1 1 -39.5929 9.75237 -45.7156 0 0 0 
74 2 1 -33.8698 12.2248 -41.6781 0 0 0 
73 1 1 -37.728 11.2607 -42.6557 0 0 0 
72 3 1 -35.6808 15.534 -48.4752 0 0 0 
75 3 1 -30.2394 12.9298 -42.1691 0 0 0 
68 2 1 -44.1195 6.9108 -44.4326 0 0 0 
69 3 1 -46.9989 6.3477 -42.4802 0 0 0 
76 1 1 -37.4365 12.8651 -39.2995 0 0 0 
81 3 1 -28.4544 15.7952 -37.4381 0 0 0 
78 3 1 -42.7146 17.0431 -37.3653 0 0 0 
77 2 1 -40.6968 14.0272 -37.1418 0 0 0 
79 1 1 -35.9684 14.6482 -36.0205 0 0 0 
80 2 1 -31.9679 15.7182 -35.9454 0 0 0 
85 1 1 -31.9557 16.4307 -30.3361 0 0 0 
82 1 1 -34.7499 15.9458 -32.7737 0 0 0 
83 2 1 -36.8565 17.8089 -29.8247 0 0 0 
86 2 1 -28.1661 15.2419 -31.4259 0 0 0 
87 3 1 -24.9853 16.5982 -32.1098 0 0 0 
90 3 1 -31.4065 23.7209 -24.8167 0 0 0 
84 3 1 -36.5247 19.7311 -26.4932 0 0 0 
88 1 1 -29.8618 17.5347 -27.2063 0 0 0 
91 1 1 -27.0201 17.815 -24.4261 0 0 0 
94 1 1 -24.308 15.7247 -22.6503 0 0 0 
97 1 1 -21.9324 14.1585 -20.1128 0 0 0 
89 2 1 -31.4283 20.1072 -24.4425 0 0 0 
93 3 1 -26.3117 22.4772 -19.1865 0 0 0 
92 2 1 -25.283 20.3944 -21.9936 0 0 0 
95 2 1 -22.8224 12.6385 -24.5571 0 0 0 
96 3 1 -22.6364 9.99447 -26.9803 0 0 0 
99 3 1 -25.1959 17.6579 -15.5019 0 0 0 
111 3 1 -6.21492 7.08219 -14.813 0 0 0 
98 2 1 -22.8247 15.309 -16.4163 0 0 0 
104 2 1 -16.4772 15.1732 -10.7524 0 0 0 
102 3 1 -12.4755 12.7163 -18.0708 0 0 0 
100 1 1 -19.6826 12.9518 -17.115 0 0 0 
101 2 1 -16.1276 11.5431 -18.1414 0 0 0 
103 1 1 -17.6662 12.5277 -13.6451 0 0 0 
106 1 1 -15.0083 10.5397 -11.7912 0 0 0 
107 2 1 -14.6418 7.24223 -13.5304 0 0 0 
108 3 1 -12.3453 4.43352 -14.9025 0 0 0 
110 2 1 -8.76442 7.2656 -12.2581 0 0 0 
118 1 1 -5.80008 5.18487 -1.61372 0 0 0 
112 1 1 -9.94088 7.1596 -7.60023 0 0 0 
115 1 1 -8.09462 6.63376 -4.34587 0 0 0 
116 2 1 -6.83693 9.26548 -1.39397 0 0 0 
117 3 1 -6.51544 10.945 1.59754 0 0 0 
114 3 1 -7.12652 -0.0957858 -7.35304 0 0 0 
113 2 1 -9.09226 3.2117 -7.32277 0 0 0 
105 3 1 -16.163 18.8137 -9.79847 0 0 0 
109 1 1 -11.9893 8.60031 -10.4846 0 0 0 
125 2 1 -1.016 1.92851 7.64301 0 0 0 
126 3 1 2.35135 1.8546 8.4283 0 0 0 
119 2 1 -7.37491 1.65006 -0.0293042 0 0 0 
120 3 1 -7.12371 -2.1828 0.375762 0 0 0 
123 3 1 2.8636 5.3029 3.34294 0 0 0 
122 2 1 -0.667026 4.96119 3.3768 0 0 0 
121 1 1 -4.34229 4.08949 1.81839 0 0 0 
124 1 1 -3.924 1.87987 5.09249 0 0 0 
127 1 1 -5.2334 -0.995958 7.3321 0 0 0 
132 3 1 -8.79782 -9.34664 13.5367 0 0 0 
131 2 1 -7.6687 -5.87238 12.2964 0 0 0 
133 1 1 -4.72752 -3.37436 14.5582 0 0 0 
136 1 1 -4.57966 -2.86494 18.4606 0 0 0 
130 1 1 -5.54962 -2.84914 10.7157 0 0 0 
134 2 1 -0.830542 -3.42735 15.8253 0 0 0 
135 3 1 1.99496 -5.7862 16.8154 0 0 0 
129 3 1 -9.32184 -5.85515 4.15914 0 0 0 
128 2 1 -8.33757 -3.40317 6.43697 0 0 0 
261 3 1 53.3117 -19.9947 23.046 0 0 0 
259 1 1 55.4256 -21.6693 29.9531 0 0 0 
260 2 1 53.9841 -21.485 26.1967 0 0 0 
144 3 1 -7.71559 -0.764269 28.538 0 0 0 
263 2 1 62.8033 -22.212 29.2447 0 0 0 
262 1 1 58.9262 -21.5879 27.9418 0 0 0 
264 3 1 65.8583 -22.8026 30.9062 0 0 0 
138 3 1 -9.7119 -0.759342 23.5699 0 0 0 
137 2 1 -7.26993 -1.4616 21.1988 0 0 0 
143 2 1 -4.07151 -1.57973 28.0915 0 0 0 
141 3 1 4.88674 -3.6326 20.5916 0 0 0 
139 1 1 -2.28335 -3.0442 21.7385 0 0 0 
142 1 1 -1.13713 -2.77101 25.5646 0 0 0 
145 1 1 0.763878 -2.99715 28.9827 0 0 0 
140 2 1 1.32684 -3.54077 21.7222 0 0 0 
153 3 1 13.6557 -0.98115 31.3273 0 0 0 
254 2 1 48.4698 -20.4094 33.7085 0 0 0 
255 3 1 46.0925 -18.0903 32.9493 0 0 0 
253 1 1 51.3733 -21.9536 36.221 0 0 0 
258 3 1 47.0424 -22.0283 27.5562 0 0 0 
256 1 1 52.8883 -21.8791 32.8238 0 0 0 
257 2 1 50.235 -21.7129 29.5705 0 0 0 
147 3 1 3.4345 -9.32496 31.7615 0 0 0 
146 2 1 2.68532 -6.45089 29.87 0 0 0 
251 2 1 47.4575 -23.5169 38.3887 0 0 0 
252 3 1 44.3184 -22.6732 36.995 0 0 0 
148 1 1 3.22436 -1.98117 31.6619 0 0 0 
149 2 1 2.16918 -2.83363 35.5376 0 0 0 
150 3 1 1.40501 -2.00414 38.8526 0 0 0 
151 1 1 6.51417 -1.37954 33.5438 0 0 0 
154 1 1 8.99661 -1.12713 36.396 0 0 0 
157 1 1 12.1205 -0.593443 38.7615 0 0 0 
152 2 1 10.0569 -0.558094 32.3464 0 0 0 
155 2 1 7.59067 -2.24963 40.0877 0 0 0 
165 3 1 21.6198 -1.84107 37.9476 0 0 0 
247 1 1 52.6464 -22.4487 43.6409 0 0 0 
250 1 1 50.9106 -22.3834 40.1213 0 0 0 
244 1 1 53.6528 -21.1177 47.1069 0 0 0 
249 3 1 56.9814 -28.3547 42.4832 0 0 0 
248 2 1 53.8928 -26.2124 42.6277 0 0 0 
245 2 1 50.0223 -19.7063 46.221 0 0 0 
246 3 1 46.6287 -18.0403 47.1344 0 0 0 
158 2 1 15.3666 0.286984 37.6958 0 0 0 
160 1 1 14.4829 -0.672239 41.9464 0 0 0 
156 3 1 7.76045 -2.31638 44.0438 0 0 0 
159 3 1 17.7908 2.58822 36.3605 0 0 0 
164 2 1 20.7708 0.343646 40.554 0 0 0 
161 2 1 13.9364 -2.30388 45.5402 0 0 0 
162 3 1 12.8206 -4.79242 47.5253 0 0 0 
163 1 1 17.6873 0.924542 43.229 0 0 0 
170 2 1 20.8631 9.05984 47.196 0 0 0 
166 1 1 20.3506 2.97423 45.2154 0 0 0 
167 2 1 23.5566 1.44055 46.5735 0 0 0 
168 3 1 25.0855 -1.72471 46.9162 0 0 0 
169 1 1 22.485 5.54428 47.1236 0 0 0 
172 1 1 24.3494 7.47047 49.7923 0 0 0 
177 3 1 27.8274 3.09163 57.7177 0 0 0 
176 2 1 27.2767 6.27321 55.6927 0 0 0 
171 3 1 18.4532 11.8168 48.443 0 0 0 
243 3 1 57.0314 -27.3531 48.2093 0 0 0 
242 2 1 57.5366 -23.9448 49.923 0 0 0 
240 3 1 59.7719 -24.9927 55.7629 0 0 0 
239 2 1 58.2565 -22.0176 53.9244 0 0 0 
241 1 1 55.5587 -20.3807 50.3303 0 0 0 
235 1 1 57.144 -16.3418 56.5813 0 0 0 
238 1 1 56.6224 -18.6069 53.5773 0 0 0 
236 2 1 54.9187 -14.3795 54.383 0 0 0 
237 3 1 53.8131 -11.8046 52.3801 0 0 0 
231 3 1 52.3382 -10.7194 60.9278 0 0 0 
173 2 1 24.5646 11.537 49.9902 0 0 0 
175 1 1 26.6551 8.07395 52.6943 0 0 0 
178 1 1 29.2784 10.2665 54.3672 0 0 0 
181 1 1 31.9133 11.8185 56.6991 0 0 0 
179 2 1 28.2788 14.1748 55.2093 0 0 0 
180 3 1 26.6372 16.5766 57.1998 0 0 0 
174 3 1 26.3782 14.5382 49.8301 0 0 0 