ITEM: TIMESTEP
0
ITEM: NUMBER OF ATOMS
276
ITEM: BOX BOUNDS pp pp pp
-203.146 203.146
-203.146 203.146
-203.146 203.146
ITEM: ATOMS id type mol x y z ix iy iz 
3 3 1 -33.5309 -33.7416 -157.491 0 0 0 
1 1 1 -26.6953 -32.9772 -160.604 0 0 0 
2 2 1 -30.0848 -33.0357 -158.733 0 0 0 
4 1 1 -26.1097 -32.242 -157.086 0 0 0 
5 2 1 -22.5823 -33.1812 -157.984 0 0 0 
7 1 1 -25.5242 -31.5069 -153.568 0 0 0 
6 3 1 -18.995 -34.1521 -157.159 0 0 0 
9 3 1 -32.3598 -32.2713 -150.454 0 0 0 
15 3 1 -31.1887 -30.8009 -143.417 0 0 0 
8 2 1 -28.9137 -31.5653 -151.696 0 0 0 
10 1 1 -24.9387 -30.7717 -150.049 0 0 0 
11 2 1 -21.4112 -31.7109 -150.947 0 0 0 
12 3 1 -17.824 -32.6817 -150.122 0 0 0 
18 3 1 -16.6529 -31.2114 -143.085 0 0 0 
13 1 1 -24.3531 -30.0365 -146.531 0 0 0 
14 2 1 -27.7427 -30.095 -144.66 0 0 0 
16 1 1 -23.7676 -29.3014 -143.012 0 0 0 
17 2 1 -20.2401 -30.2406 -143.91 0 0 0 
19 1 1 -23.1821 -28.5662 -139.494 0 0 0 
20 2 1 -26.5716 -28.6247 -137.623 0 0 0 
21 3 1 -30.0177 -29.3306 -136.38 0 0 0 
22 1 1 -22.5965 -27.831 -135.976 0 0 0 
25 1 1 -22.011 -27.0959 -132.457 0 0 0 
23 2 1 -19.0691 -28.7702 -136.873 0 0 0 
24 3 1 -15.4819 -29.7411 -136.048 0 0 0 
26 2 1 -25.4005 -27.1544 -130.586 0 0 0 
27 3 1 -28.8466 -27.8603 -129.344 0 0 0 
28 1 1 -21.4255 -26.3607 -128.939 0 0 0 
31 1 1 -20.84 -25.6256 -125.42 0 0 0 
32 2 1 -24.2295 -25.684 -123.549 0 0 0 
33 3 1 -27.6755 -26.39 -122.307 0 0 0 
29 2 1 -17.898 -27.2999 -129.837 0 0 0 
30 3 1 -14.3108 -28.2708 -129.011 0 0 0 
34 1 1 -20.2544 -24.8904 -121.902 0 0 0 
35 2 1 -16.7269 -25.8296 -122.8 0 0 0 
36 3 1 -13.1397 -26.8004 -121.975 0 0 0 
38 2 1 -23.0584 -24.2137 -116.512 0 0 0 
39 3 1 -26.5045 -24.9196 -115.27 0 0 0 
37 1 1 -19.6689 -24.1552 -118.384 0 0 0 
40 1 1 -19.0834 -23.4201 -114.865 0 0 0 
41 2 1 -15.5559 -24.3592 -115.763 0 0 0 
42 3 1 -11.9687 -25.3301 -114.938 0 0 0 
44 2 1 -21.8874 -22.7434 -109.475 0 0 0 
45 3 1 -25.3334 -23.4493 -108.233 0 0 0 
50 2 1 -20.7163 -21.2731 -102.439 0 0 0 
43 1 1 -18.4978 -22.6849 -111.347 0 0 0 
46 1 1 -17.9123 -21.9497 -107.828 0 0 0 
47 2 1 -14.3848 -22.8889 -108.726 0 0 0 
48 3 1 -10.7976 -23.8598 -107.901 0 0 0 
49 1 1 -17.3268 -21.2146 -104.31 0 0 0 
53 2 1 -13.2138 -21.4186 -101.689 0 0 0 
51 3 1 -24.1623 -21.979 -101.196 0 0 0 
57 3 1 -22.9913 -20.5086 -94.1596 0 0 0 
52 1 1 -16.7412 -20.4794 -100.792 0 0 0 
54 3 1 -9.62656 -22.3895 -100.864 0 0 0 
60 3 1 -8.4555 -20.9191 -93.8274 0 0 0 
55 1 1 -16.1557 -19.7443 -97.2732 0 0 0 
56 2 1 -19.5452 -19.8027 -95.4019 0 0 0 
58 1 1 -15.5702 -19.0091 -93.7548 0 0 0 
59 2 1 -12.0427 -19.9483 -94.6525 0 0 0 
63 3 1 -21.8202 -19.0383 -87.1228 0 0 0 
61 1 1 -14.9846 -18.2739 -90.2364 0 0 0 
62 2 1 -18.3742 -18.3324 -88.3651 0 0 0 
64 1 1 -14.3991 -17.5388 -86.718 0 0 0 
65 2 1 -10.8717 -18.4779 -87.6157 0 0 0 
67 1 1 -13.8136 -16.8036 -83.1996 0 0 0 
68 2 1 -17.2031 -16.8621 -81.3283 0 0 0 
66 3 1 -7.28443 -19.4488 -86.7906 0 0 0 
69 3 1 -20.6492 -17.568 -80.0861 0 0 0 
70 1 1 -13.228 -16.0684 -79.6812 0 0 0 
73 1 1 -12.6425 -15.3333 -76.1628 0 0 0 
74 2 1 -16.032 -15.3918 -74.2915 0 0 0 
75 3 1 -19.4781 -16.0977 -73.0493 0 0 0 
76 1 1 -12.057 -14.5981 -72.6444 0 0 0 
71 2 1 -9.70059 -17.0076 -80.5789 0 0 0 
72 3 1 -6.11337 -17.9785 -79.7538 0 0 0 
77 2 1 -8.52953 -15.5373 -73.5421 0 0 0 
78 3 1 -4.94231 -16.5082 -72.7169 0 0 0 
79 1 1 -11.4715 -13.8629 -69.126 0 0 0 
80 2 1 -14.861 -13.9214 -67.2547 0 0 0 
81 3 1 -18.3071 -14.6273 -66.0125 0 0 0 
82 1 1 -10.8859 -13.1278 -65.6076 0 0 0 
85 1 1 -10.3004 -12.3926 -62.0892 0 0 0 
83 2 1 -7.35847 -14.067 -66.5053 0 0 0 
84 3 1 -3.77125 -15.0378 -65.6801 0 0 0 
86 2 1 -13.6899 -12.4511 -60.2179 0 0 0 
87 3 1 -17.136 -13.157 -58.9757 0 0 0 
92 2 1 -12.5189 -10.9808 -53.1811 0 0 0 
93 3 1 -15.9649 -11.6867 -51.9389 0 0 0 
88 1 1 -9.71487 -11.6575 -58.5708 0 0 0 
89 2 1 -6.18741 -12.5966 -59.4685 0 0 0 
90 3 1 -2.60019 -13.5675 -58.6433 0 0 0 
91 1 1 -9.12934 -10.9223 -55.0524 0 0 0 
94 1 1 -8.54381 -10.1871 -51.534 0 0 0 
95 2 1 -5.01635 -11.1263 -52.4317 0 0 0 
96 3 1 -1.42913 -12.0972 -51.6065 0 0 0 
99 3 1 -14.7939 -10.2164 -44.9021 0 0 0 
102 3 1 -0.258066 -10.6268 -44.5697 0 0 0 
98 2 1 -11.3478 -9.51044 -46.1443 0 0 0 
97 1 1 -7.95828 -9.45196 -48.0156 0 0 0 
100 1 1 -7.37275 -8.7168 -44.4972 0 0 0 
101 2 1 -3.84528 -9.65598 -45.3949 0 0 0 
103 1 1 -6.78722 -7.98163 -40.9788 0 0 0 
104 2 1 -10.1767 -8.04012 -39.1075 0 0 0 
105 3 1 -13.6228 -8.74604 -37.8652 0 0 0 
111 3 1 -12.4517 -7.27571 -30.8284 0 0 0 
106 1 1 -6.20169 -7.24647 -37.4604 0 0 0 
107 2 1 -2.67422 -8.18566 -38.3581 0 0 0 
109 1 1 -5.61616 -6.51131 -33.942 0 0 0 
110 2 1 -9.00567 -6.56979 -32.0707 0 0 0 
113 2 1 -1.50316 -6.71533 -31.3213 0 0 0 
108 3 1 0.912995 -9.15652 -37.5329 0 0 0 
114 3 1 2.08406 -7.68619 -30.4962 0 0 0 
117 3 1 -11.2807 -5.80539 -23.7916 0 0 0 
112 1 1 -5.03063 -5.77614 -30.4236 0 0 0 
115 1 1 -4.4451 -5.04098 -26.9052 0 0 0 
116 2 1 -7.83461 -5.09946 -25.0339 0 0 0 
118 1 1 -3.85956 -4.30582 -23.3868 0 0 0 
119 2 1 -0.332099 -5.245 -24.2845 0 0 0 
120 3 1 3.25512 -6.21586 -23.4593 0 0 0 
121 1 1 -3.27403 -3.57065 -19.8684 0 0 0 
122 2 1 -6.66355 -3.62914 -17.9971 0 0 0 
123 3 1 -10.1096 -4.33506 -16.7548 0 0 0 
124 1 1 -2.6885 -2.83549 -16.35 0 0 0 
127 1 1 -2.10297 -2.10033 -12.8316 0 0 0 
128 2 1 -5.49249 -2.15881 -10.9603 0 0 0 
125 2 1 0.838961 -3.77467 -17.2477 0 0 0 
126 3 1 4.42618 -4.74554 -16.4225 0 0 0 
131 2 1 2.01002 -2.30435 -10.2109 0 0 0 
129 3 1 -8.93856 -2.86473 -9.71804 0 0 0 
130 1 1 -1.51744 -1.36516 -9.31319 0 0 0 
133 1 1 -0.931911 -0.629998 -5.79479 0 0 0 
134 2 1 -4.32143 -0.688482 -3.92353 0 0 0 
135 3 1 -7.7675 -1.3944 -2.68124 0 0 0 
132 3 1 5.59724 -3.27521 -9.38575 0 0 0 
137 2 1 3.18108 -0.83402 -3.17409 0 0 0 
138 3 1 6.7683 -1.80488 -2.34895 0 0 0 
136 1 1 -0.34638 0.105164 -2.27638 0 0 0 
144 3 1 7.93936 -0.334554 4.68786 0 0 0 
140 2 1 -3.15037 0.781844 3.11327 0 0 0 
141 3 1 -6.59644 0.075921 4.35556 0 0 0 
146 2 1 -1.97931 2.25217 10.1501 0 0 0 
139 1 1 0.23915 0.840328 1.24202 0 0 0 
142 1 1 0.82468 1.57549 4.76042 0 0 0 
143 2 1 4.35215 0.636306 3.86271 0 0 0 
145 1 1 1.41021 2.31066 8.27882 0 0 0 
147 3 1 -5.42537 1.54625 11.3924 0 0 0 
152 2 1 -0.808244 3.7225 17.1869 0 0 0 
153 3 1 -4.25431 3.01658 18.4292 0 0 0 
148 1 1 1.99574 3.04582 11.7972 0 0 0 
149 2 1 5.52321 2.10663 10.8995 0 0 0 
150 3 1 9.11042 1.13577 11.7247 0 0 0 
151 1 1 2.58127 3.78098 15.3156 0 0 0 
154 1 1 3.1668 4.51615 18.834 0 0 0 
155 2 1 6.69427 3.57696 17.9363 0 0 0 
156 3 1 10.2815 2.6061 18.7614 0 0 0 
159 3 1 -3.08325 4.4869 25.466 0 0 0 
157 1 1 3.75233 5.25131 22.3524 0 0 0 
158 2 1 0.362816 5.19283 24.2237 0 0 0 
160 1 1 4.33786 5.98647 25.8708 0 0 0 
161 2 1 7.86533 5.04729 24.9731 0 0 0 
163 1 1 4.9234 6.72164 29.3892 0 0 0 
162 3 1 11.4525 4.07643 25.7983 0 0 0 
165 3 1 -1.91219 5.95723 32.5028 0 0 0 
171 3 1 -0.74113 7.42756 39.5396 0 0 0 
164 2 1 1.53388 6.66315 31.2605 0 0 0 
166 1 1 5.50893 7.4568 32.9076 0 0 0 
167 2 1 9.03639 6.51761 32.0099 0 0 0 
169 1 1 6.09446 8.19196 36.426 0 0 0 
170 2 1 2.70494 8.13348 38.2973 0 0 0 
172 1 1 6.67999 8.92713 39.9444 0 0 0 
168 3 1 12.6236 5.54675 32.8351 0 0 0 
173 2 1 10.2074 7.98794 39.0467 0 0 0 
174 3 1 13.7947 7.01708 39.8719 0 0 0 
175 1 1 7.26552 9.66229 43.4628 0 0 0 
176 2 1 3.876 9.60381 45.3341 0 0 0 
177 3 1 0.429931 8.89788 46.5764 0 0 0 
179 2 1 11.3785 9.45827 46.0835 0 0 0 
180 3 1 14.9657 8.48741 46.9087 0 0 0 
178 1 1 7.85105 10.3974 46.9812 0 0 0 
181 1 1 8.43658 11.1326 50.4996 0 0 0 
186 3 1 16.1368 9.95773 53.9455 0 0 0 
182 2 1 5.04706 11.0741 52.3709 0 0 0 
183 3 1 1.60099 10.3682 53.6132 0 0 0 
184 1 1 9.02211 11.8678 54.018 0 0 0 
187 1 1 9.60764 12.6029 57.5364 0 0 0 
188 2 1 6.21812 12.5445 59.4077 0 0 0 
189 3 1 2.77205 11.8385 60.65 0 0 0 
185 2 1 12.5496 10.9286 53.1203 0 0 0 
191 2 1 13.7206 12.3989 60.1571 0 0 0 
194 2 1 7.38919 14.0148 66.4445 0 0 0 
195 3 1 3.94312 13.3089 67.6868 0 0 0 
190 1 1 10.1932 13.3381 61.0548 0 0 0 
192 3 1 17.3078 11.4281 60.9823 0 0 0 
193 1 1 10.7787 14.0733 64.5732 0 0 0 
196 1 1 11.3642 14.8084 68.0916 0 0 0 
197 2 1 14.8917 13.8692 67.1939 0 0 0 
198 3 1 18.4789 12.8984 68.0191 0 0 0 
200 2 1 8.56025 15.4851 73.4813 0 0 0 
201 3 1 5.11418 14.7792 74.7236 0 0 0 
206 2 1 9.73131 16.9554 80.5181 0 0 0 
199 1 1 11.9498 15.5436 71.61 0 0 0 
202 1 1 12.5353 16.2788 75.1284 0 0 0 
203 2 1 16.0628 15.3396 74.2307 0 0 0 
204 3 1 19.65 14.3687 75.0559 0 0 0 
205 1 1 13.1208 17.0139 78.6468 0 0 0 
207 3 1 6.28524 16.2495 81.7604 0 0 0 
213 3 1 7.4563 17.7198 88.7972 0 0 0 
208 1 1 13.7064 17.7491 82.1652 0 0 0 
209 2 1 17.2338 16.8099 81.2675 0 0 0 
211 1 1 14.2919 18.4842 85.6836 0 0 0 
212 2 1 10.9024 18.4258 87.5549 0 0 0 
214 1 1 14.8774 19.2194 89.202 0 0 0 
215 2 1 18.4049 18.2802 88.3043 0 0 0 
210 3 1 20.821 15.839 82.0927 0 0 0 
216 3 1 21.9921 17.3094 89.1295 0 0 0 
219 3 1 8.62736 19.1902 95.834 0 0 0 
217 1 1 15.4629 19.9546 92.7204 0 0 0 
218 2 1 12.0734 19.8961 94.5917 0 0 0 
221 2 1 19.5759 19.7506 95.3411 0 0 0 
222 3 1 23.1632 18.7797 96.1663 0 0 0 
220 1 1 16.0485 20.6897 96.2388 0 0 0 
223 1 1 16.634 21.4249 99.7572 0 0 0 
228 3 1 24.3342 20.25 103.203 0 0 0 
225 3 1 9.79842 20.6605 102.871 0 0 0 
224 2 1 13.2445 21.3664 101.628 0 0 0 
226 1 1 17.2195 22.1601 103.276 0 0 0 
229 1 1 17.8051 22.8952 106.794 0 0 0 
230 2 1 14.4155 22.8367 108.665 0 0 0 
231 3 1 10.9695 22.1308 109.907 0 0 0 
232 1 1 18.3906 23.6304 110.312 0 0 0 
227 2 1 20.747 21.2209 102.378 0 0 0 
233 2 1 21.9181 22.6912 109.415 0 0 0 
234 3 1 25.5053 21.7203 110.24 0 0 0 
235 1 1 18.9761 24.3656 113.831 0 0 0 
236 2 1 15.5866 24.3071 115.702 0 0 0 
237 3 1 12.1405 23.6012 116.944 0 0 0 
238 1 1 19.5617 25.1007 117.349 0 0 0 
241 1 1 20.1472 25.8359 120.868 0 0 0 
239 2 1 23.0891 24.1615 116.451 0 0 0 
240 3 1 26.6763 23.1907 117.277 0 0 0 
242 2 1 16.7577 25.7774 122.739 0 0 0 
243 3 1 13.3116 25.0715 123.981 0 0 0 
248 2 1 17.9287 27.2477 129.776 0 0 0 
249 3 1 14.4827 26.5418 131.018 0 0 0 
244 1 1 20.7327 26.571 124.386 0 0 0 
245 2 1 24.2602 25.6319 123.488 0 0 0 
246 3 1 27.8474 24.661 124.313 0 0 0 
247 1 1 21.3182 27.3062 127.904 0 0 0 
250 1 1 21.9038 28.0414 131.423 0 0 0 
251 2 1 25.4312 27.1022 130.525 0 0 0 
252 3 1 29.0185 26.1313 131.35 0 0 0 
254 2 1 19.0998 28.7181 136.812 0 0 0 
255 3 1 15.6537 28.0121 138.055 0 0 0 
253 1 1 22.4893 28.7765 134.941 0 0 0 
256 1 1 23.0748 29.5117 138.46 0 0 0 
257 2 1 26.6023 28.5725 137.562 0 0 0 
258 3 1 30.1895 27.6017 138.387 0 0 0 
259 1 1 23.6604 30.2469 141.978 0 0 0 
260 2 1 20.2709 30.1884 143.849 0 0 0 
261 3 1 16.8248 29.4825 145.091 0 0 0 
263 2 1 27.7734 30.0428 144.599 0 0 0 
264 3 1 31.3606 29.072 145.424 0 0 0 
267 3 1 17.9959 30.9528 152.128 0 0 0 
262 1 1 24.2459 30.982 145.496 0 0 0 
265 1 1 24.8314 31.7172 149.015 0 0 0 
266 2 1 21.4419 31.6587 150.886 0 0 0 
269 2 1 28.9444 31.5132 151.636 0 0 0 
273 3 1 19.1669 32.4231 159.165 0 0 0 
268 1 1 25.417 32.4524 152.533 0 0 0 
271 1 1 26.0025 33.1875 156.052 0 0 0 
272 2 1 22.613 33.129 157.923 0 0 0 
274 1 1 26.588 33.9227 159.57 0 0 0 
275 2 1 30.1155 32.9835 158.672 0 0 0 
270 3 1 32.5316 30.5423 152.461 0 0 0 
276 3 1 33.7027 32.0126 159.497 0 0 0 
ITEM: TIMESTEP
100000
ITEM: NUMBER OF ATOMS
276
ITEM: BOX BOUNDS pp pp pp
-203.146 203.146
-203.146 203.146
-203.146 203.146
ITEM: ATOMS id type mol x y z ix iy iz 
6 3 1 -45.0829 -17.3115 -145.699 0 0 0 
5 2 1 -41.7274 -17.5993 -143.791 0 0 0 
1 1 1 -36.144 -21.4407 -143.482 0 0 0 
4 1 1 -39.2133 -19.7795 -141.563 0 0 0 
2 2 1 -35.2372 -21.9815 -139.624 0 0 0 
8 2 1 -45.3837 -18.0807 -138.757 0 0 0 
9 3 1 -48.9953 -16.7332 -139.46 0 0 0 
13 1 1 -44.2839 -17.2101 -131.52 0 0 0 
14 2 1 -47.6949 -18.2692 -130.655 0 0 0 
15 3 1 -50.575 -19.7203 -129.087 0 0 0 
7 1 1 -41.5045 -18.5025 -138.556 0 0 0 
11 2 1 -39.1255 -18.6322 -132.48 0 0 0 
10 1 1 -42.3038 -17.7146 -134.83 0 0 0 
3 3 1 -36.4656 -23.2816 -136.29 0 0 0 
16 1 1 -44.3491 -16.2568 -127.804 0 0 0 
12 3 1 -35.8167 -20.0422 -131.164 0 0 0 
17 2 1 -42.1283 -13.3296 -125.982 0 0 0 
18 3 1 -40.4656 -10.3493 -124.164 0 0 0 
20 2 1 -47.7224 -19.6535 -123.104 0 0 0 
21 3 1 -50.6033 -21.6468 -123.236 0 0 0 
19 1 1 -45.462 -16.5737 -124.086 0 0 0 
27 3 1 -55.6569 -16.98 -117.301 0 0 0 
30 3 1 -56.6752 -18.8332 -112.101 0 0 0 
22 1 1 -46.184 -16.1525 -120.331 0 0 0 
29 2 1 -52.8643 -18.3491 -112.862 0 0 0 
28 1 1 -49.3301 -16.4785 -113.195 0 0 0 
26 2 1 -51.8686 -17.3957 -116.684 0 0 0 
25 1 1 -47.9252 -16.3597 -116.807 0 0 0 
23 2 1 -44.0306 -13.6854 -117.945 0 0 0 
24 3 1 -42.5402 -10.3257 -117.696 0 0 0 
36 3 1 -53.679 -7.32983 -105.998 0 0 0 
35 2 1 -53.1523 -11.1446 -105.614 0 0 0 
31 1 1 -50.1101 -16.0401 -109.404 0 0 0 
34 1 1 -49.8865 -13.5153 -106.351 0 0 0 
37 1 1 -49.1209 -11.9358 -102.875 0 0 0 
32 2 1 -52.6325 -18.2453 -106.943 0 0 0 
38 2 1 -51.8308 -9.37463 -100.968 0 0 0 
33 3 1 -55.3589 -20.7773 -107.14 0 0 0 
40 1 1 -47.7069 -10.9622 -99.5087 0 0 0 
43 1 1 -47.23 -9.75081 -95.8528 0 0 0 
46 1 1 -46.1983 -9.45954 -92.0313 0 0 0 
41 2 1 -43.7237 -11.3541 -99.0813 0 0 0 
42 3 1 -40.8012 -10.8419 -97.0032 0 0 0 
44 2 1 -48.7173 -6.38608 -94.6585 0 0 0 
39 3 1 -53.7821 -6.5832 -100.356 0 0 0 
45 3 1 -50.576 -3.07743 -94.5274 0 0 0 
49 1 1 -44.7515 -9.38345 -88.4633 0 0 0 
50 2 1 -40.8958 -8.6914 -88.1676 0 0 0 
51 3 1 -37.7816 -7.68885 -89.9298 0 0 0 
57 3 1 -37.3514 -13.8509 -79.2338 0 0 0 
52 1 1 -44.0984 -9.23569 -84.7369 0 0 0 
55 1 1 -42.812 -9.76297 -81.0078 0 0 0 
47 2 1 -48.4145 -7.73103 -89.578 0 0 0 
48 3 1 -48.0362 -4.71359 -87.3645 0 0 0 
54 3 1 -47.139 -4.77862 -80.3721 0 0 0 
53 2 1 -47.1082 -7.33092 -82.7162 0 0 0 
56 2 1 -39.0285 -11.1958 -80.6726 0 0 0 
62 2 1 -37.2258 -7.36697 -73.2192 0 0 0 
63 3 1 -37.8296 -3.54446 -73.6363 0 0 0 
58 1 1 -42.044 -9.96728 -77.1751 0 0 0 
59 2 1 -44.7896 -11.6602 -75.1996 0 0 0 
60 3 1 -48.2207 -11.4647 -73.4611 0 0 0 
61 1 1 -40.5058 -9.61625 -73.5841 0 0 0 
64 1 1 -39.7269 -10.0259 -69.7383 0 0 0 
68 2 1 -34.1376 -12.4293 -66.4172 0 0 0 
69 3 1 -35.1119 -16.122 -66.6724 0 0 0 
71 2 1 -33.676 -14.0297 -62.0619 0 0 0 
72 3 1 -31.2547 -16.8878 -62.9075 0 0 0 
65 2 1 -42.3165 -9.39376 -67.062 0 0 0 
67 1 1 -37.3438 -10.9666 -66.7648 0 0 0 
70 1 1 -36.5478 -11.2599 -63.0121 0 0 0 
66 3 1 -42.2012 -8.49896 -63.2541 0 0 0 
75 3 1 -30.8205 -15.5496 -57.563 0 0 0 
74 2 1 -34.284 -13.8568 -57.7443 0 0 0 
73 1 1 -36.6798 -11.1167 -59.1478 0 0 0 
79 1 1 -35.8799 -10.0848 -51.7125 0 0 0 
76 1 1 -36.6082 -10.2983 -55.4584 0 0 0 
77 2 1 -37.4613 -6.5525 -54.1188 0 0 0 
78 3 1 -37.6168 -3.10573 -53.9056 0 0 0 
81 3 1 -37.9008 -15.3775 -47.0653 0 0 0 
80 2 1 -35.8381 -13.0891 -48.8969 0 0 0 
82 1 1 -35.1999 -7.85436 -48.6738 0 0 0 
83 2 1 -34.6075 -3.84533 -48.6323 0 0 0 
88 1 1 -33.8732 -7.25521 -41.3379 0 0 0 
85 1 1 -34.6606 -6.90213 -45.19 0 0 0 
86 2 1 -34.6467 -3.03913 -43.8372 0 0 0 
89 2 1 -34.9619 -10.4984 -39.3551 0 0 0 
84 3 1 -33.3867 -1.07759 -50.6003 0 0 0 
87 3 1 -36.5403 0.326083 -43.4103 0 0 0 
91 1 1 -32.0265 -6.3274 -37.9471 0 0 0 
92 2 1 -31.69 -8.75743 -34.8942 0 0 0 
93 3 1 -31.4976 -10.0241 -31.3421 0 0 0 
90 3 1 -35.4753 -13.9252 -38.4263 0 0 0 
98 2 1 -27.4392 -2.3634 -28.9061 0 0 0 
96 3 1 -25.4306 0.770236 -36.7767 0 0 0 
94 1 1 -30.4206 -3.87564 -35.5393 0 0 0 
95 2 1 -28.6896 -0.955091 -37.8298 0 0 0 
97 1 1 -28.5999 -1.84647 -32.8204 0 0 0 
99 3 1 -24.7081 -3.43741 -26.8815 0 0 0 
111 3 1 -17.6159 -2.10408 -23.5024 0 0 0 
101 2 1 -27.9898 4.89609 -34.2467 0 0 0 
105 3 1 -26.8449 11.4501 -30.1658 0 0 0 
102 3 1 -27.8006 6.5614 -37.3669 0 0 0 
100 1 1 -27.25 1.73216 -31.6724 0 0 0 
110 2 1 -18.7832 1.57816 -23.3105 0 0 0 
103 1 1 -25.908 4.46385 -29.3817 0 0 0 
104 2 1 -26.9683 8.20329 -28.7953 0 0 0 
106 1 1 -23.4316 5.64106 -26.57 0 0 0 
109 1 1 -20.732 5.17764 -24.0047 0 0 0 
107 2 1 -23.5579 9.3051 -25.4511 0 0 0 
114 3 1 -14.0457 -0.141234 -20.8224 0 0 0 
120 3 1 -10.6902 -1.945 -14.1755 0 0 0 
108 3 1 -24.4848 12.9538 -25.2641 0 0 0 
113 2 1 -14.6513 3.49978 -21.9924 0 0 0 
119 2 1 -11.4861 1.74591 -14.7801 0 0 0 
118 1 1 -14.2605 4.77024 -14.7324 0 0 0 
115 1 1 -16.0881 5.67706 -18.0613 0 0 0 
112 1 1 -18.1803 5.26681 -21.1712 0 0 0 
116 2 1 -16.9928 8.69963 -15.3303 0 0 0 
117 3 1 -18.5791 9.74014 -12.0338 0 0 0 
130 1 1 -10.8337 -1.37579 -2.13456 0 0 0 
131 2 1 -14.536 -3.23679 -1.67457 0 0 0 
132 3 1 -17.6919 -3.4652 0.422885 0 0 0 
127 1 1 -11.2075 1.52126 -4.61329 0 0 0 
122 2 1 -12.5176 7.82653 -9.04809 0 0 0 
121 1 1 -13.1547 4.70331 -10.9911 0 0 0 
125 2 1 -10.1889 6.22322 -4.81266 0 0 0 
124 1 1 -11.9414 3.74994 -7.55982 0 0 0 
126 3 1 -10.082 9.36308 -3.3401 0 0 0 
123 3 1 -13.5363 11.2194 -8.44884 0 0 0 
147 3 1 -1.86304 -20.8333 8.74718 0 0 0 
141 3 1 -11.8065 -16.4954 7.28085 0 0 0 
140 2 1 -9.83124 -13.8657 5.16897 0 0 0 
142 1 1 -5.72133 -11.9285 7.21679 0 0 0 
146 2 1 -4.0529 -18.3817 9.9718 0 0 0 
137 2 1 -6.05439 -5.84931 5.66445 0 0 0 
135 3 1 -3.59539 -0.595162 3.76166 0 0 0 
138 3 1 -2.53682 -4.88467 6.21299 0 0 0 
133 1 1 -10.0278 -3.83623 0.717614 0 0 0 
136 1 1 -9.06128 -6.81655 3.03573 0 0 0 
139 1 1 -8.22289 -10.2593 4.7688 0 0 0 
134 2 1 -6.882 -2.46609 2.80292 0 0 0 
128 2 1 -7.2001 1.53644 -3.61722 0 0 0 
129 3 1 -3.39704 1.37923 -3.5822 0 0 0 
153 3 1 0.436584 -22.8707 19.3309 0 0 0 
152 2 1 -0.713228 -19.8436 17.6994 0 0 0 
145 1 1 -4.79836 -14.4236 10.0852 0 0 0 
148 1 1 -3.82022 -14.8853 13.8254 0 0 0 
149 2 1 -3.86172 -12.3954 16.9603 0 0 0 
151 1 1 -1.88993 -16.0761 16.9238 0 0 0 
143 2 1 -2.53485 -10.728 7.51906 0 0 0 
154 1 1 0.408602 -15.9682 20.1658 0 0 0 
155 2 1 -0.364232 -12.9395 22.7241 0 0 0 
156 3 1 -1.63755 -10.0273 24.3952 0 0 0 
150 3 1 -6.6503 -11.9988 19.6135 0 0 0 
144 3 1 0.907972 -9.24646 7.15359 0 0 0 
159 3 1 2.77293 -21.0501 28.2371 0 0 0 
158 2 1 3.57153 -19.579 24.9247 0 0 0 
161 2 1 8.70135 -16.7332 26.1439 0 0 0 
162 3 1 9.15836 -18.9064 29.0737 0 0 0 
157 1 1 3.09071 -16.1783 22.8911 0 0 0 
160 1 1 5.96014 -14.7286 24.8534 0 0 0 
163 1 1 8.25456 -12.1887 26.7124 0 0 0 
164 2 1 8.71638 -8.49276 25.1015 0 0 0 
165 3 1 10.5362 -5.2767 23.9083 0 0 0 
168 3 1 14.5945 -4.27754 28.8494 0 0 0 
166 1 1 10.1525 -10.491 29.5165 0 0 0 
170 2 1 15.7753 -11.3869 32.9026 0 0 0 
169 1 1 12.0001 -9.97001 32.9891 0 0 0 
167 2 1 13.2424 -7.84141 28.53 0 0 0 
172 1 1 13.5159 -9.1302 36.4655 0 0 0 
177 3 1 15.429 -13.2553 45.2438 0 0 0 
176 2 1 13.1242 -11.2237 42.8158 0 0 0 
171 3 1 17.9761 -14.2104 33.9177 0 0 0 
174 3 1 18.5539 -4.32106 34.0691 0 0 0 
175 1 1 14.4075 -8.37116 39.9775 0 0 0 
173 2 1 16.19 -6.04725 36.0278 0 0 0 
180 3 1 21.4192 -1.11117 42.8378 0 0 0 
182 2 1 16.3974 -7.59885 49.8885 0 0 0 
178 1 1 16.0467 -6.57985 42.9418 0 0 0 
179 2 1 19.2281 -4.00874 42.7932 0 0 0 
181 1 1 17.2212 -5.76203 46.413 0 0 0 
184 1 1 18.9749 -3.25457 48.8407 0 0 0 
187 1 1 20.7625 -1.63596 51.6777 0 0 0 
185 2 1 19.1901 0.646454 47.6514 0 0 0 
186 3 1 21.6812 2.73953 45.6681 0 0 0 
191 2 1 20.8983 4.30228 53.9175 0 0 0 
188 2 1 23.719 -3.15422 53.9202 0 0 0 
183 3 1 13.7892 -9.1421 52.1976 0 0 0 
189 3 1 26.1167 -5.53333 54.9365 0 0 0 
190 1 1 21.7567 0.780005 54.6148 0 0 0 
192 3 1 19.2616 6.19149 51.3436 0 0 0 
194 2 1 23.2638 1.14986 61.3994 0 0 0 
193 1 1 22.7751 2.7815 57.6681 0 0 0 
196 1 1 24.7542 5.23903 60.0984 0 0 0 
199 1 1 27.2778 7.7632 61.315 0 0 0 
200 2 1 30.5489 8.29411 59.5886 0 0 0 
201 3 1 33.3653 6.97222 57.5036 0 0 0 
195 3 1 23.1902 0.710245 65.213 0 0 0 
197 2 1 23.0155 5.81703 63.6503 0 0 0 
198 3 1 23.0642 6.93137 67.0976 0 0 0 
202 1 1 28.4887 10.369 64.0811 0 0 0 
203 2 1 26.4983 12.4193 66.9932 0 0 0 
205 1 1 31.0502 12.2201 65.9931 0 0 0 
204 3 1 25.6887 15.8019 67.1083 0 0 0 
206 2 1 31.0101 15.696 68.1056 0 0 0 
208 1 1 34.6658 12.5181 67.2562 0 0 0 
210 3 1 41.5459 10.7561 65.0222 0 0 0 
209 2 1 38.1031 10.7824 66.4874 0 0 0 
211 1 1 36.8572 14.7802 69.3563 0 0 0 
215 2 1 42.5451 18.1391 68.9493 0 0 0 
216 3 1 42.7186 16.5678 65.4414 0 0 0 
222 3 1 50.0898 21.8334 67.0008 0 0 0 
207 3 1 30.5473 18.7028 70.3239 0 0 0 
212 2 1 34.8283 16.9345 72.0872 0 0 0 
214 1 1 39.2256 17.4671 70.7308 0 0 0 
225 3 1 54.8509 24.9016 70.0726 0 0 0 
227 2 1 53.1939 26.5081 75.7128 0 0 0 
228 3 1 55.1736 29.6852 74.9417 0 0 0 
213 3 1 32.6319 17.7294 74.7518 0 0 0 
218 2 1 41.5974 22.1828 75.9496 0 0 0 
217 1 1 41.6614 19.6688 72.6771 0 0 0 
219 3 1 41.8767 21.5418 79.3975 0 0 0 
220 1 1 45.2036 21.1114 72.5633 0 0 0 
223 1 1 48.6481 22.6166 73.7574 0 0 0 
221 2 1 47.0953 20.6082 69.1626 0 0 0 
224 2 1 52.3911 23.4798 72.4908 0 0 0 
226 1 1 50.4674 24.4138 76.7317 0 0 0 
231 3 1 56.7522 30.1555 80.0472 0 0 0 
229 1 1 51.5045 25.9874 80.0512 0 0 0 
230 2 1 53.4166 29.2506 79.867 0 0 0 
232 1 1 52.0649 27.0535 83.7486 0 0 0 
235 1 1 54.2699 27.8114 86.8839 0 0 0 
238 1 1 57.2734 28.4585 89.4421 0 0 0 
239 2 1 59.7594 31.4579 89.5283 0 0 0 
240 3 1 63.0091 33.1184 88.9305 0 0 0 
242 2 1 63.6108 27.7235 92.7762 0 0 0 
243 3 1 66.9983 26.3029 92.5014 0 0 0 
233 2 1 49.3475 27.7797 86.6078 0 0 0 
234 3 1 46.7615 26.155 88.7926 0 0 0 
236 2 1 52.7209 30.0959 89.9526 0 0 0 
237 3 1 50.5607 29.4214 93.065 0 0 0 
241 1 1 59.4524 27.5077 92.7115 0 0 0 
244 1 1 60.0762 26.3738 96.3927 0 0 0 
245 2 1 63.0266 28.1418 98.644 0 0 0 
247 1 1 60.5296 24.5317 99.8903 0 0 0 
248 2 1 62.4229 26.3786 102.894 0 0 0 
246 3 1 66.166 28.0718 100.292 0 0 0 
249 3 1 62.4819 28.532 105.756 0 0 0 
252 3 1 56.2936 16.4324 105.119 0 0 0 
250 1 1 60.9354 22.3115 103.05 0 0 0 
251 2 1 59.2285 18.6901 104.049 0 0 0 
253 1 1 62.0749 20.9676 106.74 0 0 0 
256 1 1 63.2112 19.0397 109.98 0 0 0 
254 2 1 64.1951 23.61 108.774 0 0 0 
255 3 1 67.678 23.6137 110.396 0 0 0 
263 2 1 67.1251 14.9005 116.894 0 0 0 
264 3 1 71.0399 14.9242 117.499 0 0 0 
257 2 1 66.2073 16.5211 111.103 0 0 0 
258 3 1 66.9868 12.7584 110.913 0 0 0 
259 1 1 63.0158 18.1078 113.67 0 0 0 
262 1 1 64.0177 16.4764 116.967 0 0 0 
265 1 1 64.3931 15.5578 120.775 0 0 0 
260 2 1 59.6291 18.8812 115.751 0 0 0 
261 3 1 57.6547 18.4194 118.739 0 0 0 
272 2 1 65.2698 15.3654 131.053 0 0 0 
271 1 1 63.0946 17.0438 128.003 0 0 0 
274 1 1 61.659 19.1678 130.912 0 0 0 
273 3 1 66.8879 12.6112 132.999 0 0 0 
270 3 1 64.5707 9.46017 127.238 0 0 0 
269 2 1 64.163 12.8911 126.763 0 0 0 
268 1 1 63.8781 15.6901 124.479 0 0 0 
266 2 1 67.2979 12.8166 121.93 0 0 0 
267 3 1 69.04 9.57396 122.679 0 0 0 
276 3 1 64.2156 19.1507 137.805 0 0 0 
275 2 1 63.8232 19.4003 134.239 0 0 0 
ITEM: TIMESTEP
200000
ITEM: NUMBER OF ATOMS
276
ITEM: BOX BOUNDS pp pp pp
-203.146 203.146
-203.146 203.146
-203.146 203.146
ITEM: ATOMS id type mol x y z ix iy iz 
129 3 1 19.6203 -14.8425 -32.6604 0 0 0 
126 3 1 14.7165 -10.6382 -33.0994 0 0 0 
128 2 1 19.9273 -11.4494 -31.1707 0 0 0 
125 2 1 15.5837 -9.63871 -29.9132 0 0 0 
127 1 1 20.0294 -8.26035 -28.6501 0 0 0 
131 2 1 23.1184 -9.44852 -34.5105 0 0 0 
132 3 1 20.6648 -8.47782 -37.2811 0 0 0 
130 1 1 23.3788 -8.21597 -30.6384 0 0 0 
134 2 1 26.7276 -8.06041 -35.9502 0 0 0 
135 3 1 27.2154 -10.208 -38.804 0 0 0 
133 1 1 27.0364 -7.98983 -32.2389 0 0 0 
137 2 1 32.3513 -9.02123 -36.1325 0 0 0 
138 3 1 32.0939 -11.5454 -38.469 0 0 0 
117 3 1 10.4078 -0.452344 -19.3027 0 0 0 
136 1 1 30.8455 -7.32437 -32.8344 0 0 0 
143 2 1 40.5143 -8.70074 -35.9675 0 0 0 
144 3 1 41.9846 -11.8846 -37.3723 0 0 0 
139 1 1 34.6674 -6.43604 -32.6766 0 0 0 
140 2 1 36.7851 -3.49365 -31.2871 0 0 0 
142 1 1 38.4342 -6.44029 -33.3564 0 0 0 
145 1 1 42.155 -5.23435 -33.1811 0 0 0 
149 2 1 47.0946 -4.04986 -38.3205 0 0 0 
148 1 1 45.7722 -4.36359 -34.4428 0 0 0 
150 3 1 49.2186 -3.22654 -41.3913 0 0 0 
151 1 1 49.5246 -3.79973 -34.4624 0 0 0 
152 2 1 52.4099 -4.76267 -37.1491 0 0 0 
153 3 1 54.57 -3.65298 -40.1455 0 0 0 
147 3 1 42.8079 -4.72351 -25.8985 0 0 0 
158 2 1 59.2929 -0.608727 -33.9833 0 0 0 
162 3 1 66.0465 2.01965 -31.426 0 0 0 
159 3 1 61.0361 0.48379 -37.014 0 0 0 
123 3 1 18.375 -2.42088 -20.3241 0 0 0 
122 2 1 16.2318 -4.72226 -22.5467 0 0 0 
124 1 1 16.8009 -7.4911 -26.709 0 0 0 
120 3 1 10.8403 -9.42188 -30.9734 0 0 0 
116 2 1 8.9693 -3.33609 -20.5017 0 0 0 
118 1 1 9.92474 -4.92235 -24.8046 0 0 0 
115 1 1 6.39353 -3.94751 -23.5321 0 0 0 
112 1 1 2.58809 -3.76745 -23.7286 0 0 0 
121 1 1 13.5959 -5.8829 -25.2115 0 0 0 
119 2 1 10.4106 -7.03779 -28.1631 0 0 0 
146 2 1 43.7094 -4.25664 -29.5159 0 0 0 
141 3 1 39.0236 -2.34792 -28.5736 0 0 0 
154 1 1 52.9546 -3.00672 -32.993 0 0 0 
157 1 1 56.1905 -1.53209 -31.4622 0 0 0 
160 1 1 58.9687 -0.452389 -28.8668 0 0 0 
163 1 1 60.5492 -0.500652 -25.3229 0 0 0 
166 1 1 60.9436 -1.09965 -21.5346 0 0 0 
167 2 1 64.1259 -0.209089 -20.2325 0 0 0 
168 3 1 67.5924 0.450954 -20.5756 0 0 0 
113 2 1 3.17848 -3.58176 -27.7595 0 0 0 
110 2 1 -1.6992 -3.8444 -25.562 0 0 0 
114 3 1 2.98471 -5.74119 -30.6069 0 0 0 
111 3 1 -2.99472 -4.82974 -28.9196 0 0 0 
156 3 1 51.4061 -6.20125 -27.2421 0 0 0 
155 2 1 53.8249 -5.06005 -29.5621 0 0 0 
161 2 1 62.4953 1.10892 -30.2246 0 0 0 
165 3 1 66.2799 4.61109 -24.2492 0 0 0 
164 2 1 63.0911 2.30306 -24.2924 0 0 0 
177 3 1 56.4523 -4.05246 -5.2443 0 0 0 
176 2 1 59.1105 -5.30715 -7.72481 0 0 0 
104 2 1 -5.84246 -8.56899 -16.7874 0 0 0 
105 3 1 -2.74855 -9.94858 -15.452 0 0 0 
170 2 1 57.1939 -4.79624 -17.0693 0 0 0 
171 3 1 53.7612 -5.49103 -16.5909 0 0 0 
169 1 1 60.3854 -2.44047 -17.9102 0 0 0 
172 1 1 61.3173 -3.24154 -14.2639 0 0 0 
175 1 1 61.9357 -4.44714 -10.5606 0 0 0 
173 2 1 64.8414 -1.47236 -12.9782 0 0 0 
174 3 1 68.5052 -0.655841 -13.431 0 0 0 
109 1 1 -0.742979 -4.24327 -21.6316 0 0 0 
106 1 1 -3.4748 -4.7954 -18.9541 0 0 0 
103 1 1 -5.9335 -4.62918 -16.0084 0 0 0 
107 2 1 -4.50301 -7.57556 -21.8654 0 0 0 
108 3 1 -4.92115 -8.28665 -25.6193 0 0 0 
189 3 1 55.8051 -6.86463 5.689 0 0 0 
182 2 1 68.419 -8.57618 -2.79407 0 0 0 
184 1 1 64.5179 -7.65732 0.152627 0 0 0 
181 1 1 64.8736 -6.92527 -3.76268 0 0 0 
183 3 1 70.257 -11.5792 -3.83555 0 0 0 
102 3 1 -6.155 -9.47355 -10.5161 0 0 0 
178 1 1 63.9814 -5.58464 -7.33893 0 0 0 
179 2 1 68.0679 -6.1696 -7.60056 0 0 0 
180 3 1 71.2154 -7.83088 -8.07454 0 0 0 
90 3 1 -15.0485 1.93106 -2.01699 0 0 0 
86 2 1 -18.4112 10.1432 -2.51907 0 0 0 
89 2 1 -15.258 5.07206 -4.00673 0 0 0 
87 3 1 -18.3839 7.37468 -0.387941 0 0 0 
96 3 1 -14.4134 -2.87809 -6.91782 0 0 0 
91 1 1 -12.2932 6.42637 -7.77367 0 0 0 
95 2 1 -11.5335 -0.711201 -7.70737 0 0 0 
97 1 1 -9.00664 0.421346 -11.3058 0 0 0 
94 1 1 -10.9845 3.05008 -9.29322 0 0 0 
101 2 1 -7.4795 -6.1194 -11.6963 0 0 0 
100 1 1 -7.78544 -2.52603 -13.4404 0 0 0 
98 2 1 -6.58706 2.47454 -13.917 0 0 0 
99 3 1 -5.12341 5.43735 -12.8807 0 0 0 
25 1 1 -80.4005 21.6477 1.37553 0 0 0 
27 3 1 -79.0601 27.9526 -2.21542 0 0 0 
26 2 1 -78.9057 24.7516 -0.740297 0 0 0 
23 2 1 -83.7858 25.1949 0.461358 0 0 0 
24 3 1 -84.0996 25.4821 -3.33912 0 0 0 
30 3 1 -75.9989 13.2518 2.36621 0 0 0 
31 1 1 -73.333 19.4416 -1.1276 0 0 0 
34 1 1 -69.7836 18.7372 -2.2312 0 0 0 
36 3 1 -67.4097 12.4563 -1.24467 0 0 0 
35 2 1 -68.1807 15.666 -2.46343 0 0 0 
40 1 1 -62.6854 19.5239 -5.02771 0 0 0 
41 2 1 -61.3007 17.2217 -7.82338 0 0 0 
42 3 1 -61.7206 14.2614 -10.1808 0 0 0 
37 1 1 -66.1668 19.563 -3.38222 0 0 0 
45 3 1 -53.3338 21.2792 -9.67668 0 0 0 
44 2 1 -56.718 20.7906 -8.45507 0 0 0 
43 1 1 -59.2031 21.0851 -5.37885 0 0 0 
54 3 1 -43.9999 20.4774 -5.44229 0 0 0 
53 2 1 -46.3081 23.13 -5.85225 0 0 0 
74 2 1 -23.0536 19.2763 -1.12248 0 0 0 
75 3 1 -21.6041 17.2215 1.31135 0 0 0 
85 1 1 -15.1446 12.2129 -3.78111 0 0 0 
88 1 1 -14.2279 8.79667 -5.38337 0 0 0 
92 2 1 -12.2731 6.65268 -11.8361 0 0 0 
93 3 1 -13.5739 6.1733 -15.2746 0 0 0 
29 2 1 -76.4431 15.9671 -0.0431903 0 0 0 
28 1 1 -76.9954 19.9853 0.203687 0 0 0 
46 1 1 -55.8009 22.9766 -5.00357 0 0 0 
49 1 1 -52.246 24.6194 -5.22044 0 0 0 
47 2 1 -56.5442 26.8365 -4.01079 0 0 0 
48 3 1 -57.9176 30.4524 -4.27772 0 0 0 
50 2 1 -52.3583 28.5192 -6.30461 0 0 0 
52 1 1 -48.7317 25.7157 -4.92171 0 0 0 
55 1 1 -45.2673 26.9914 -4.00909 0 0 0 
56 2 1 -44.6945 30.8554 -4.44955 0 0 0 
58 1 1 -41.4978 27.3594 -3.39342 0 0 0 
62 2 1 -36.2494 23.0856 -5.83621 0 0 0 
64 1 1 -33.9237 26.9448 -2.82296 0 0 0 
65 2 1 -32.7775 30.6927 -1.76435 0 0 0 
61 1 1 -37.7083 26.1768 -3.62087 0 0 0 
59 2 1 -39.558 30.1545 -1.14358 0 0 0 
72 3 1 -21.5385 29.2161 1.97508 0 0 0 
67 1 1 -30.1986 26.4505 -2.55662 0 0 0 
68 2 1 -28.0187 29.8743 -1.93469 0 0 0 
71 2 1 -23.4637 27.3152 -0.557614 0 0 0 
73 1 1 -23.1282 23.1242 -2.38068 0 0 0 
70 1 1 -26.4896 25.1379 -1.97578 0 0 0 
57 3 1 -45.5026 34.0293 -5.74279 0 0 0 
66 3 1 -33.3807 34.1858 -1.62663 0 0 0 
60 3 1 -37.4679 30.3482 1.91697 0 0 0 
69 3 1 -26.3898 32.4444 0.223634 0 0 0 
193 1 1 62.3237 -10.2051 11.0856 0 0 0 
188 2 1 59.4627 -6.80385 4.32776 0 0 0 
185 2 1 67.5113 -9.73068 2.01094 0 0 0 
186 3 1 69.5976 -12.8834 2.4161 0 0 0 
190 1 1 62.9074 -9.42213 7.41748 0 0 0 
187 1 1 63.2611 -8.07464 3.77637 0 0 0 
191 2 1 65.7933 -11.4422 9.34689 0 0 0 
192 3 1 69.2823 -12.9846 9.71399 0 0 0 
15 3 1 -85.8849 18.065 14.6336 0 0 0 
22 1 1 -83.5619 22.6489 3.56867 0 0 0 
19 1 1 -85.9548 22.583 6.75078 0 0 0 
38 2 1 -65.1461 23.4773 -2.92926 0 0 0 
63 3 1 -36.3092 21.1447 -8.99697 0 0 0 
82 1 1 -15.0824 16.1313 -2.91031 0 0 0 
79 1 1 -16.2187 19.8138 -2.37679 0 0 0 
83 2 1 -11.6415 15.722 -3.17785 0 0 0 
80 2 1 -12.4198 20.3901 -2.18176 0 0 0 
81 3 1 -10.0113 21.4645 0.0232725 0 0 0 
84 3 1 -8.29445 16.717 -1.70614 0 0 0 
18 3 1 -92.4347 26.3289 4.44735 0 0 0 
11 2 1 -95.9388 20.8776 11.9616 0 0 0 
13 1 1 -91.15 22.5534 12.0455 0 0 0 
12 3 1 -95.9882 17.8489 9.99646 0 0 0 
20 2 1 -82.121 21.6816 7.54311 0 0 0 
21 3 1 -78.6723 22.9714 8.0858 0 0 0 
16 1 1 -88.9864 22.6273 9.05418 0 0 0 
17 2 1 -89.7797 25.4522 6.50892 0 0 0 
32 2 1 -71.1662 22.6021 0.0443401 0 0 0 
33 3 1 -70.0013 25.6646 1.42005 0 0 0 
39 3 1 -65.2841 26.9257 -3.49128 0 0 0 
51 3 1 -54.4556 30.6141 -8.75219 0 0 0 
76 1 1 -19.3744 22.2995 -2.12388 0 0 0 
78 3 1 -16.3301 27.6718 2.55595 0 0 0 
77 2 1 -17.3949 25.1918 0.0286269 0 0 0 
273 3 1 -24.7565 -24.5707 30.8495 0 0 0 
276 3 1 -21.4796 -38.2777 28.1377 0 0 0 
270 3 1 -24.1997 -29.4164 19.6897 0 0 0 
269 2 1 -21.1954 -28.3969 21.789 0 0 0 