ITEM: TIMESTEP
0
ITEM: NUMBER OF ATOMS
318
ITEM: BOX BOUNDS pp pp pp
-212.968 212.968
-212.968 212.968
-212.968 212.968
ITEM: ATOMS id type mol x y z ix iy iz 
1 1 1 -30.794 -38.1233 -185.233 0 0 0 
2 2 1 -34.1835 -38.1818 -183.362 0 0 0 
5 2 1 -26.681 -38.3274 -182.613 0 0 0 
3 3 1 -37.6296 -38.8877 -182.12 0 0 0 
8 2 1 -33.0124 -36.7115 -176.325 0 0 0 
9 3 1 -36.4585 -37.4174 -175.083 0 0 0 
4 1 1 -30.2084 -37.3882 -181.715 0 0 0 
6 3 1 -23.0938 -39.2982 -181.787 0 0 0 
7 1 1 -29.6229 -36.653 -178.196 0 0 0 
10 1 1 -29.0374 -35.9178 -174.678 0 0 0 
11 2 1 -25.5099 -36.857 -175.576 0 0 0 
12 3 1 -21.9227 -37.8279 -174.75 0 0 0 
14 2 1 -31.8414 -35.2412 -169.288 0 0 0 
15 3 1 -35.2874 -35.9471 -168.046 0 0 0 
13 1 1 -28.4519 -35.1827 -171.16 0 0 0 
16 1 1 -27.8663 -34.4475 -167.641 0 0 0 
17 2 1 -24.3389 -35.3867 -168.539 0 0 0 
18 3 1 -20.7516 -36.3576 -167.714 0 0 0 
19 1 1 -27.2808 -33.7124 -164.123 0 0 0 
20 2 1 -30.6703 -33.7708 -162.251 0 0 0 
21 3 1 -34.1164 -34.4768 -161.009 0 0 0 
27 3 1 -32.9453 -33.0064 -153.972 0 0 0 
22 1 1 -26.6953 -32.9772 -160.604 0 0 0 
23 2 1 -23.1678 -33.9164 -161.502 0 0 0 
25 1 1 -26.1097 -32.242 -157.086 0 0 0 
26 2 1 -29.4992 -32.3005 -155.215 0 0 0 
28 1 1 -25.5242 -31.5069 -153.568 0 0 0 
29 2 1 -21.9967 -32.446 -154.465 0 0 0 
24 3 1 -19.5806 -34.8872 -160.677 0 0 0 
30 3 1 -18.4095 -33.4169 -153.64 0 0 0 
33 3 1 -31.7742 -31.5361 -146.936 0 0 0 
31 1 1 -24.9387 -30.7717 -150.049 0 0 0 
32 2 1 -28.3282 -30.8302 -148.178 0 0 0 
35 2 1 -20.8257 -30.9757 -147.429 0 0 0 
36 3 1 -17.2385 -31.9466 -146.603 0 0 0 
34 1 1 -24.3531 -30.0365 -146.531 0 0 0 
37 1 1 -23.7676 -29.3014 -143.012 0 0 0 
42 3 1 -16.0674 -30.4763 -139.566 0 0 0 
39 3 1 -30.6032 -30.0658 -139.899 0 0 0 
38 2 1 -27.1571 -29.3599 -141.141 0 0 0 
40 1 1 -23.1821 -28.5662 -139.494 0 0 0 
43 1 1 -22.5965 -27.831 -135.976 0 0 0 
44 2 1 -25.9861 -27.8895 -134.104 0 0 0 
45 3 1 -29.4321 -28.5954 -132.862 0 0 0 
46 1 1 -22.011 -27.0959 -132.457 0 0 0 
41 2 1 -19.6546 -29.5054 -140.392 0 0 0 
47 2 1 -18.4836 -28.0351 -133.355 0 0 0 
48 3 1 -14.8963 -29.0059 -132.53 0 0 0 
49 1 1 -21.4255 -26.3607 -128.939 0 0 0 
50 2 1 -24.815 -26.4192 -127.067 0 0 0 
51 3 1 -28.2611 -27.1251 -125.825 0 0 0 
52 1 1 -20.84 -25.6256 -125.42 0 0 0 
53 2 1 -17.3125 -26.5647 -126.318 0 0 0 
54 3 1 -13.7253 -27.5356 -125.493 0 0 0 
55 1 1 -20.2544 -24.8904 -121.902 0 0 0 
56 2 1 -23.6439 -24.9489 -120.031 0 0 0 
57 3 1 -27.09 -25.6548 -118.788 0 0 0 
62 2 1 -22.4729 -23.4785 -112.994 0 0 0 
63 3 1 -25.9189 -24.1845 -111.752 0 0 0 
58 1 1 -19.6689 -24.1552 -118.384 0 0 0 
59 2 1 -16.1414 -25.0944 -119.281 0 0 0 
60 3 1 -12.5542 -26.0653 -118.456 0 0 0 
61 1 1 -19.0834 -23.4201 -114.865 0 0 0 
65 2 1 -14.9704 -23.6241 -112.245 0 0 0 
68 2 1 -21.3018 -22.0082 -105.957 0 0 0 
69 3 1 -24.7479 -22.7141 -104.715 0 0 0 
64 1 1 -18.4978 -22.6849 -111.347 0 0 0 
66 3 1 -11.3831 -24.595 -111.419 0 0 0 
67 1 1 -17.9123 -21.9497 -107.828 0 0 0 
70 1 1 -17.3268 -21.2146 -104.31 0 0 0 
71 2 1 -13.7993 -22.1538 -105.208 0 0 0 
72 3 1 -10.2121 -23.1246 -104.382 0 0 0 
75 3 1 -23.5768 -21.2438 -97.6781 0 0 0 
73 1 1 -16.7412 -20.4794 -100.792 0 0 0 
74 2 1 -20.1307 -20.5379 -98.9203 0 0 0 
77 2 1 -12.6282 -20.6834 -98.1709 0 0 0 
78 3 1 -9.04103 -21.6543 -97.3458 0 0 0 
76 1 1 -16.1557 -19.7443 -97.2732 0 0 0 
79 1 1 -15.5702 -19.0091 -93.7548 0 0 0 
80 2 1 -18.9597 -19.0676 -91.8835 0 0 0 
81 3 1 -22.4058 -19.7735 -90.6412 0 0 0 
87 3 1 -21.2347 -18.3032 -83.6044 0 0 0 
82 1 1 -14.9846 -18.2739 -90.2364 0 0 0 
83 2 1 -11.4572 -19.2131 -91.1341 0 0 0 
85 1 1 -14.3991 -17.5388 -86.718 0 0 0 
86 2 1 -17.7886 -17.5972 -84.8467 0 0 0 
88 1 1 -13.8136 -16.8036 -83.1996 0 0 0 
89 2 1 -10.2861 -17.7428 -84.0973 0 0 0 
84 3 1 -7.86996 -20.184 -90.309 0 0 0 
90 3 1 -6.6989 -18.7136 -83.2722 0 0 0 
91 1 1 -13.228 -16.0684 -79.6812 0 0 0 
92 2 1 -16.6176 -16.1269 -77.8099 0 0 0 
93 3 1 -20.0636 -16.8328 -76.5677 0 0 0 
94 1 1 -12.6425 -15.3333 -76.1628 0 0 0 
97 1 1 -12.057 -14.5981 -72.6444 0 0 0 
95 2 1 -9.11506 -16.2724 -77.0605 0 0 0 
96 3 1 -5.52784 -17.2433 -76.2353 0 0 0 
98 2 1 -15.4465 -14.6566 -70.7731 0 0 0 
99 3 1 -18.8926 -15.3625 -69.5309 0 0 0 
100 1 1 -11.4715 -13.8629 -69.126 0 0 0 
103 1 1 -10.8859 -13.1278 -65.6076 0 0 0 
104 2 1 -14.2754 -13.1863 -63.7363 0 0 0 
105 3 1 -17.7215 -13.8922 -62.4941 0 0 0 
106 1 1 -10.3004 -12.3926 -62.0892 0 0 0 
101 2 1 -7.944 -14.8021 -70.0237 0 0 0 
102 3 1 -4.35678 -15.773 -69.1985 0 0 0 
107 2 1 -6.77294 -13.3318 -62.9869 0 0 0 
108 3 1 -3.18572 -14.3027 -62.1617 0 0 0 
110 2 1 -13.1044 -11.7159 -56.6995 0 0 0 
111 3 1 -16.5505 -12.4218 -55.4573 0 0 0 
109 1 1 -9.71487 -11.6575 -58.5708 0 0 0 
112 1 1 -9.12934 -10.9223 -55.0524 0 0 0 
113 2 1 -5.60187 -11.8615 -55.9501 0 0 0 
114 3 1 -2.01466 -12.8323 -55.1249 0 0 0 
115 1 1 -8.54381 -10.1871 -51.534 0 0 0 
116 2 1 -11.9333 -10.2456 -49.6627 0 0 0 
117 3 1 -15.3794 -10.9515 -48.4205 0 0 0 
119 2 1 -4.43081 -10.3911 -48.9133 0 0 0 
120 3 1 -0.843596 -11.362 -48.0881 0 0 0 
122 2 1 -10.7623 -8.77528 -42.6259 0 0 0 
123 3 1 -14.2083 -9.4812 -41.3836 0 0 0 
118 1 1 -7.95828 -9.45196 -48.0156 0 0 0 
121 1 1 -7.37275 -8.7168 -44.4972 0 0 0 
124 1 1 -6.78722 -7.98163 -40.9788 0 0 0 
125 2 1 -3.25975 -8.92082 -41.8765 0 0 0 
126 3 1 0.327464 -9.89168 -41.0513 0 0 0 
129 3 1 -13.0373 -8.01088 -34.3468 0 0 0 
127 1 1 -6.20169 -7.24647 -37.4604 0 0 0 
128 2 1 -9.59121 -7.30495 -35.5891 0 0 0 
130 1 1 -5.61616 -6.51131 -33.942 0 0 0 
131 2 1 -2.08869 -7.45049 -34.8397 0 0 0 
132 3 1 1.49853 -8.42135 -34.0145 0 0 0 
135 3 1 -11.8662 -6.54055 -27.31 0 0 0 
133 1 1 -5.03063 -5.77614 -30.4236 0 0 0 
134 2 1 -8.42014 -5.83463 -28.5523 0 0 0 
136 1 1 -4.4451 -5.04098 -26.9052 0 0 0 
137 2 1 -0.91763 -5.98017 -27.8029 0 0 0 
139 1 1 -3.85956 -4.30582 -23.3868 0 0 0 
140 2 1 -7.24908 -4.3643 -21.5155 0 0 0 
138 3 1 2.66959 -6.95103 -26.9778 0 0 0 
143 2 1 0.253431 -4.50984 -20.7661 0 0 0 
141 3 1 -10.6951 -5.07022 -20.2732 0 0 0 
142 1 1 -3.27403 -3.57065 -19.8684 0 0 0 
145 1 1 -2.6885 -2.83549 -16.35 0 0 0 
146 2 1 -6.07802 -2.89397 -14.4787 0 0 0 
147 3 1 -9.52409 -3.5999 -13.2364 0 0 0 
148 1 1 -2.10297 -2.10033 -12.8316 0 0 0 
144 3 1 3.84065 -5.4807 -19.9409 0 0 0 
149 2 1 1.42449 -3.03951 -13.7293 0 0 0 
150 3 1 5.01171 -4.01037 -12.9041 0 0 0 
151 1 1 -1.51744 -1.36516 -9.31319 0 0 0 
152 2 1 -4.90696 -1.42365 -7.44193 0 0 0 
153 3 1 -8.35303 -2.12957 -6.19964 0 0 0 
154 1 1 -0.931911 -0.629998 -5.79479 0 0 0 
155 2 1 2.59555 -1.56918 -6.69249 0 0 0 
156 3 1 6.18277 -2.54004 -5.86735 0 0 0 
157 1 1 -0.34638 0.105164 -2.27638 0 0 0 
158 2 1 -3.7359 0.046681 -0.405124 0 0 0 
159 3 1 -7.18197 -0.659241 0.837158 0 0 0 
161 2 1 3.76661 -0.098857 0.344313 0 0 0 
162 3 1 7.35383 -1.06972 1.16945 0 0 0 
164 2 1 -2.56484 1.51701 6.63168 0 0 0 
165 3 1 -6.01091 0.811085 7.87396 0 0 0 
160 1 1 0.23915 0.840328 1.24202 0 0 0 
163 1 1 0.82468 1.57549 4.76042 0 0 0 
166 1 1 1.41021 2.31066 8.27882 0 0 0 
167 2 1 4.93768 1.37147 7.38111 0 0 0 
168 3 1 8.52489 0.400609 8.20626 0 0 0 
170 2 1 -1.39377 2.98733 13.6685 0 0 0 
171 3 1 -4.83985 2.28141 14.9108 0 0 0 
169 1 1 1.99574 3.04582 11.7972 0 0 0 
172 1 1 2.58127 3.78098 15.3156 0 0 0 
173 2 1 6.10874 2.8418 14.4179 0 0 0 
174 3 1 9.69595 1.87094 15.2431 0 0 0 
175 1 1 3.1668 4.51615 18.834 0 0 0 
176 2 1 -0.222713 4.45766 20.7053 0 0 0 
177 3 1 -3.66878 3.75174 21.9476 0 0 0 
183 3 1 -2.49772 5.22207 28.9844 0 0 0 
178 1 1 3.75233 5.25131 22.3524 0 0 0 
179 2 1 7.2798 4.31212 21.4547 0 0 0 
181 1 1 4.33786 5.98647 25.8708 0 0 0 
182 2 1 0.948347 5.92799 27.7421 0 0 0 
184 1 1 4.9234 6.72164 29.3892 0 0 0 
185 2 1 8.45086 5.78245 28.4915 0 0 0 
180 3 1 10.867 3.34126 22.2798 0 0 0 
186 3 1 12.0381 4.81159 29.3167 0 0 0 
189 3 1 -1.32666 6.69239 36.0212 0 0 0 
187 1 1 5.50893 7.4568 32.9076 0 0 0 
188 2 1 2.11941 7.39832 34.7789 0 0 0 
190 1 1 6.09446 8.19196 36.426 0 0 0 
191 2 1 9.62192 7.25278 35.5283 0 0 0 
193 1 1 6.67999 8.92713 39.9444 0 0 0 
192 3 1 13.2091 6.28192 36.3535 0 0 0 
195 3 1 -0.155599 8.16272 43.058 0 0 0 
194 2 1 3.29047 8.86864 41.8157 0 0 0 
196 1 1 7.26552 9.66229 43.4628 0 0 0 
201 3 1 1.01546 9.63305 50.0948 0 0 0 
197 2 1 10.793 8.72311 42.5651 0 0 0 
198 3 1 14.3802 7.75224 43.3903 0 0 0 
204 3 1 15.5513 9.22257 50.4271 0 0 0 
199 1 1 7.85105 10.3974 46.9812 0 0 0 
200 2 1 4.46153 10.339 48.8525 0 0 0 
202 1 1 8.43658 11.1326 50.4996 0 0 0 
203 2 1 11.964 10.1934 49.6019 0 0 0 
205 1 1 9.02211 11.8678 54.018 0 0 0 
206 2 1 5.63259 11.8093 55.8893 0 0 0 
207 3 1 2.18652 11.1034 57.1316 0 0 0 
208 1 1 9.60764 12.6029 57.5364 0 0 0 
209 2 1 13.1351 11.6638 56.6387 0 0 0 
210 3 1 16.7223 10.6929 57.4639 0 0 0 
212 2 1 6.80365 13.2796 62.9261 0 0 0 
213 3 1 3.35758 12.5737 64.1684 0 0 0 
218 2 1 7.97472 14.75 69.9629 0 0 0 
211 1 1 10.1932 13.3381 61.0548 0 0 0 
214 1 1 10.7787 14.0733 64.5732 0 0 0 
215 2 1 14.3062 13.1341 63.6755 0 0 0 
216 3 1 17.8934 12.1632 64.5007 0 0 0 
217 1 1 11.3642 14.8084 68.0916 0 0 0 
221 2 1 15.4772 14.6044 70.7123 0 0 0 
219 3 1 4.52865 14.044 71.2052 0 0 0 
224 2 1 9.14578 16.2203 76.9997 0 0 0 
225 3 1 5.69971 15.5144 78.242 0 0 0 
220 1 1 11.9498 15.5436 71.61 0 0 0 
222 3 1 19.0644 13.6335 71.5375 0 0 0 
223 1 1 12.5353 16.2788 75.1284 0 0 0 
226 1 1 13.1208 17.0139 78.6468 0 0 0 
227 2 1 16.6483 16.0747 77.7491 0 0 0 
228 3 1 20.2355 15.1039 78.5743 0 0 0 
231 3 1 6.87077 16.9847 85.2788 0 0 0 
229 1 1 13.7064 17.7491 82.1652 0 0 0 
230 2 1 10.3168 17.6906 84.0365 0 0 0 
232 1 1 14.2919 18.4842 85.6836 0 0 0 
233 2 1 17.8194 17.5451 84.7859 0 0 0 
235 1 1 14.8774 19.2194 89.202 0 0 0 
236 2 1 11.4879 19.1609 91.0733 0 0 0 
234 3 1 21.4066 16.5742 85.6111 0 0 0 
237 3 1 8.04183 18.455 92.3156 0 0 0 
243 3 1 9.21289 19.9253 99.3524 0 0 0 
238 1 1 15.4629 19.9546 92.7204 0 0 0 
239 2 1 18.9904 19.0154 91.8227 0 0 0 
240 3 1 22.5776 18.0445 92.6479 0 0 0 
246 3 1 23.7487 19.5149 99.6847 0 0 0 
241 1 1 16.0485 20.6897 96.2388 0 0 0 
242 2 1 12.659 20.6313 98.1101 0 0 0 
244 1 1 16.634 21.4249 99.7572 0 0 0 
245 2 1 20.1615 20.4857 98.8595 0 0 0 
247 1 1 17.2195 22.1601 103.276 0 0 0 
248 2 1 13.83 22.1016 105.147 0 0 0 
249 3 1 10.384 21.3957 106.389 0 0 0 
250 1 1 17.8051 22.8952 106.794 0 0 0 
253 1 1 18.3906 23.6304 110.312 0 0 0 
251 2 1 21.3325 21.956 105.896 0 0 0 
252 3 1 24.9198 20.9852 106.721 0 0 0 
254 2 1 15.0011 23.5719 112.184 0 0 0 
255 3 1 11.555 22.866 113.426 0 0 0 
256 1 1 18.9761 24.3656 113.831 0 0 0 
259 1 1 19.5617 25.1007 117.349 0 0 0 
260 2 1 16.1721 25.0422 119.22 0 0 0 
261 3 1 12.7261 24.3363 120.463 0 0 0 
262 1 1 20.1472 25.8359 120.868 0 0 0 
257 2 1 22.5036 23.4264 112.933 0 0 0 
258 3 1 26.0908 22.4555 113.758 0 0 0 
263 2 1 23.6747 24.8967 119.97 0 0 0 
264 3 1 27.2619 23.9258 120.795 0 0 0 
266 2 1 17.3432 26.5126 126.257 0 0 0 
267 3 1 13.8971 25.8066 127.499 0 0 0 
265 1 1 20.7327 26.571 124.386 0 0 0 
268 1 1 21.3182 27.3062 127.904 0 0 0 
269 2 1 24.8457 26.367 127.007 0 0 0 
270 3 1 28.4329 25.3962 127.832 0 0 0 
271 1 1 21.9038 28.0414 131.423 0 0 0 
272 2 1 18.5143 27.9829 133.294 0 0 0 
273 3 1 15.0682 27.277 134.536 0 0 0 
278 2 1 19.6853 29.4532 140.331 0 0 0 
279 3 1 16.2393 28.7473 141.573 0 0 0 
274 1 1 22.4893 28.7765 134.941 0 0 0 
275 2 1 26.0168 27.8374 134.043 0 0 0 
276 3 1 29.604 26.8665 134.869 0 0 0 
277 1 1 23.0748 29.5117 138.46 0 0 0 
280 1 1 23.6604 30.2469 141.978 0 0 0 
281 2 1 27.1878 29.3077 141.08 0 0 0 
282 3 1 30.7751 28.3368 141.905 0 0 0 
285 3 1 17.4103 30.2176 148.61 0 0 0 
288 3 1 31.9461 29.8072 148.942 0 0 0 
283 1 1 24.2459 30.982 145.496 0 0 0 
284 2 1 20.8564 30.9235 147.368 0 0 0 
286 1 1 24.8314 31.7172 149.015 0 0 0 
287 2 1 28.3589 30.778 148.117 0 0 0 
291 3 1 18.5814 31.688 155.647 0 0 0 
289 1 1 25.417 32.4524 152.533 0 0 0 
290 2 1 22.0275 32.3939 154.405 0 0 0 
292 1 1 26.0025 33.1875 156.052 0 0 0 
293 2 1 29.53 32.2483 155.154 0 0 0 
295 1 1 26.588 33.9227 159.57 0 0 0 
296 2 1 23.1985 33.8642 161.441 0 0 0 
294 3 1 33.1172 31.2775 155.979 0 0 0 
299 2 1 30.701 33.7187 162.191 0 0 0 
297 3 1 19.7524 33.1583 162.684 0 0 0 
298 1 1 27.1736 34.6579 163.088 0 0 0 
301 1 1 27.7591 35.393 166.607 0 0 0 
302 2 1 24.3696 35.3345 168.478 0 0 0 
303 3 1 20.9235 34.6286 169.72 0 0 0 
304 1 1 28.3446 36.1282 170.125 0 0 0 
300 3 1 34.2882 32.7478 163.016 0 0 0 
305 2 1 31.8721 35.189 169.227 0 0 0 
306 3 1 35.4593 34.2181 170.053 0 0 0 
307 1 1 28.9302 36.8633 173.644 0 0 0 
308 2 1 25.5406 36.8049 175.515 0 0 0 
309 3 1 22.0946 36.0989 176.757 0 0 0 
310 1 1 29.5157 37.5985 177.162 0 0 0 
313 1 1 30.1012 38.3337 180.68 0 0 0 
311 2 1 33.0431 36.6593 176.264 0 0 0 
312 3 1 36.6304 35.6885 177.089 0 0 0 
314 2 1 26.7117 38.2752 182.552 0 0 0 
315 3 1 23.2656 37.5693 183.794 0 0 0 
316 1 1 30.6867 39.0688 184.199 0 0 0 
317 2 1 34.2142 38.1296 183.301 0 0 0 
318 3 1 37.8014 37.1588 184.126 0 0 0 
ITEM: TIMESTEP
100000
ITEM: NUMBER OF ATOMS
318
ITEM: BOX BOUNDS pp pp pp
-212.968 212.968
-212.968 212.968
-212.968 212.968
ITEM: ATOMS id type mol x y z ix iy iz 
3 3 1 -57.4567 -74.6543 -135.164 0 0 0 
1 1 1 -53.0194 -72.088 -138.893 0 0 0 
2 2 1 -56.0621 -74.7416 -138.406 0 0 0 
4 1 1 -52.0545 -72.1783 -135.034 0 0 0 
7 1 1 -50.5488 -71.3528 -131.36 0 0 0 
8 2 1 -48.8042 -67.8533 -130.613 0 0 0 
9 3 1 -48.2355 -64.3489 -131.068 0 0 0 
15 3 1 -42.047 -64.6284 -127.759 0 0 0 
6 3 1 -53.1702 -79.4256 -133.442 0 0 0 
5 2 1 -51.8318 -76.0366 -133.724 0 0 0 
12 3 1 -48.8016 -77.3641 -123.053 0 0 0 
11 2 1 -49.8441 -74.12 -124.748 0 0 0 
17 2 1 -43.9275 -71.0204 -119.257 0 0 0 
18 3 1 -44.6799 -73.9446 -117.439 0 0 0 
10 1 1 -49.4615 -71.1958 -127.722 0 0 0 
13 1 1 -47.328 -69.394 -124.903 0 0 0 
16 1 1 -44.9998 -68.2092 -122.017 0 0 0 
14 2 1 -44.8571 -66.331 -125.741 0 0 0 
19 1 1 -42.9442 -66.4373 -119.235 0 0 0 
33 3 1 -33.7751 -48.6217 -118.357 0 0 0 
21 3 1 -38.944 -70.7923 -114.801 0 0 0 
20 2 1 -40.2906 -68.2227 -116.903 0 0 0 
22 1 1 -41.3395 -63.6888 -116.921 0 0 0 
25 1 1 -39.7063 -60.5424 -115.388 0 0 0 
24 3 1 -39.7261 -66.8974 -109.927 0 0 0 
23 2 1 -41.1806 -65.0168 -113.032 0 0 0 
26 2 1 -38.1234 -60.9301 -111.629 0 0 0 
27 3 1 -36.5332 -63.1911 -109.359 0 0 0 
32 2 1 -34.2878 -51.5515 -116.294 0 0 0 
28 1 1 -38.1684 -57.0635 -114.258 0 0 0 
29 2 1 -35.7385 -56.1872 -111.108 0 0 0 
30 3 1 -32.8583 -56.3367 -108.477 0 0 0 
31 1 1 -36.8972 -53.395 -113.888 0 0 0 
34 1 1 -36.6586 -49.5696 -112.718 0 0 0 
35 2 1 -36.9364 -48.6623 -108.661 0 0 0 
39 3 1 -35.1154 -42.8542 -119.243 0 0 0 
37 1 1 -35.8677 -45.7097 -112.687 0 0 0 
38 2 1 -33.9071 -43.7323 -115.677 0 0 0 
40 1 1 -36.1574 -41.977 -111.381 0 0 0 
43 1 1 -36.8058 -38.4301 -110.113 0 0 0 
45 3 1 -40.1144 -32.8908 -113.595 0 0 0 
44 2 1 -39.2808 -35.7018 -111.221 0 0 0 
46 1 1 -35.8035 -35.5217 -107.712 0 0 0 
47 2 1 -35.6433 -32.3046 -109.226 0 0 0 
48 3 1 -34.5665 -30.0866 -111.83 0 0 0 
36 3 1 -35.2867 -47.5973 -105.884 0 0 0 
41 2 1 -36.3064 -42.0156 -107.31 0 0 0 
42 3 1 -34.4733 -41.6282 -104.371 0 0 0 
51 3 1 -30.5044 -28.3095 -105.504 0 0 0 
50 2 1 -32.8725 -30.7997 -104.59 0 0 0 
49 1 1 -34.3188 -33.9041 -104.459 0 0 0 
52 1 1 -33.0102 -33.2583 -100.759 0 0 0 
55 1 1 -31.8508 -31.6155 -97.2488 0 0 0 
54 3 1 -32.1724 -39.1169 -95.8274 0 0 0 
53 2 1 -31.9237 -36.2371 -98.0463 0 0 0 
59 2 1 -31.9496 -32.7113 -90.414 0 0 0 
60 3 1 -31.7017 -36.1627 -88.9284 0 0 0 
57 3 1 -31.3282 -24.4829 -100.226 0 0 0 
56 2 1 -31.277 -27.6295 -98.1242 0 0 0 
58 1 1 -30.7283 -30.359 -93.603 0 0 0 
66 3 1 -27.9127 -24.9712 -81.6313 0 0 0 
65 2 1 -27.0564 -24.2577 -85.0197 0 0 0 
61 1 1 -28.8788 -28.6654 -90.508 0 0 0 
64 1 1 -26.3951 -26.1868 -88.6556 0 0 0 
62 2 1 -28.8911 -29.3227 -86.4903 0 0 0 
63 3 1 -27.6667 -31.6459 -83.6911 0 0 0 
67 1 1 -22.7663 -24.5916 -87.9489 0 0 0 
70 1 1 -19.159 -23.1798 -87.5146 0 0 0 
71 2 1 -15.8222 -24.6357 -89.3269 0 0 0 
72 3 1 -15.1288 -25.5039 -92.8596 0 0 0 
78 3 1 -12.992 -13.5228 -94.1792 0 0 0 
68 2 1 -22.7949 -21.6296 -85.18 0 0 0 
69 3 1 -24.7091 -20.3727 -82.1921 0 0 0 
73 1 1 -16.3452 -20.5422 -86.9619 0 0 0 
74 2 1 -14.1408 -20.4237 -84.0587 0 0 0 
75 3 1 -11.175 -19.7928 -81.6044 0 0 0 
76 1 1 -13.961 -17.7211 -87.9973 0 0 0 
77 2 1 -14.0351 -14.5326 -90.5711 0 0 0 
79 1 1 -10.673 -15.7316 -87.766 0 0 0 
82 1 1 -7.86057 -14.0729 -85.4303 0 0 0 
80 2 1 -8.25824 -15.116 -90.9106 0 0 0 
83 2 1 -4.75411 -11.621 -86.5278 0 0 0 
85 1 1 -6.31428 -13.3562 -82.0411 0 0 0 
81 3 1 -6.66862 -13.3687 -93.8258 0 0 0 
84 3 1 -1.45873 -10.3971 -87.7581 0 0 0 
88 1 1 -5.15128 -13.4603 -78.3193 0 0 0 
91 1 1 -5.51089 -14.0287 -74.4683 0 0 0 
86 2 1 -2.50774 -11.8899 -81.6571 0 0 0 
87 3 1 -0.364389 -9.07473 -81.42 0 0 0 
89 2 1 -1.64545 -13.3262 -76.841 0 0 0 
90 3 1 1.28759 -11.7535 -75.7204 0 0 0 
92 2 1 -2.31511 -13.6396 -71.9988 0 0 0 
98 2 1 -10.6497 -18.2166 -66.5668 0 0 0 
97 1 1 -6.90446 -16.7527 -67.2256 0 0 0 
94 1 1 -6.677 -15.4549 -70.9017 0 0 0 
93 3 1 1.37632 -13.8812 -70.781 0 0 0 
100 1 1 -7.31139 -17.1395 -63.3439 0 0 0 
95 2 1 -10.2469 -17.3404 -70.7474 0 0 0 
96 3 1 -13.5752 -18.7859 -71.2805 0 0 0 
99 3 1 -14.3882 -18.1142 -66.1863 0 0 0 
101 2 1 -10.713 -15.5668 -61.7427 0 0 0 
102 3 1 -13.5357 -13.4012 -61.703 0 0 0 
104 2 1 -4.76326 -18.989 -56.9311 0 0 0 
105 3 1 -2.72344 -19.8233 -53.9714 0 0 0 
103 1 1 -7.18515 -16.7295 -59.4629 0 0 0 
106 1 1 -7.43205 -15.5568 -55.721 0 0 0 
107 2 1 -10.7026 -14.4741 -53.7048 0 0 0 
110 2 1 -3.67379 -15.967 -50.2925 0 0 0 
109 1 1 -6.62722 -14.1102 -52.2199 0 0 0 
114 3 1 -11.6752 -10.7775 -44.3091 0 0 0 
108 3 1 -13.6771 -14.2215 -51.6427 0 0 0 
115 1 1 -4.68495 -9.92156 -46.0249 0 0 0 
116 2 1 -2.99269 -6.4069 -47.2991 0 0 0 
112 1 1 -6.16928 -12.0587 -48.8954 0 0 0 
113 2 1 -9.22768 -10.9531 -46.9549 0 0 0 
118 1 1 -3.93023 -8.83884 -42.3145 0 0 0 
117 3 1 -2.89942 -3.19972 -49.5304 0 0 0 
111 3 1 -2.68497 -19.1336 -48.6704 0 0 0 
120 3 1 -9.17929 -11.4965 -37.3894 0 0 0 
121 1 1 -2.54196 -7.4087 -39.09 0 0 0 
119 2 1 -6.56676 -9.88963 -39.3206 0 0 0 
124 1 1 -2.57504 -7.16116 -35.2534 0 0 0 
125 2 1 -4.83091 -9.88727 -33.1651 0 0 0 
126 3 1 -6.7078 -13.2697 -33.4009 0 0 0 
122 2 1 0.885363 -5.4112 -38.5573 0 0 0 
123 3 1 4.30355 -4.45517 -38.6098 0 0 0 
127 1 1 -2.00587 -6.45933 -31.4345 0 0 0 
130 1 1 -1.67181 -6.7685 -27.5632 0 0 0 
133 1 1 -0.156614 -8.55467 -24.3544 0 0 0 
129 3 1 0.513104 -0.499694 -31.2615 0 0 0 
132 3 1 -1.61977 -2.04539 -21.8576 0 0 0 
131 2 1 -2.94778 -4.59484 -24.478 0 0 0 
128 2 1 -1.80002 -2.92733 -30.3366 0 0 0 
137 2 1 3.08307 -14.98 -22.9715 0 0 0 
138 3 1 2.88108 -18.3621 -23.9524 0 0 0 
140 2 1 5.5362 -16.5194 -18.9291 0 0 0 
141 3 1 7.35754 -19.5425 -20.032 0 0 0 
136 1 1 1.61487 -11.2469 -22.0532 0 0 0 
139 1 1 3.24332 -13.1857 -19.1029 0 0 0 
142 1 1 4.34652 -13.7714 -15.4998 0 0 0 
135 3 1 -3.68308 -6.84911 -18.2087 0 0 0 
134 2 1 -1.53158 -7.69487 -20.7712 0 0 0 
143 2 1 5.78843 -17.4056 -14.6257 0 0 0 
144 3 1 6.89905 -20.7708 -14.7098 0 0 0 
145 1 1 5.00326 -13.6703 -11.4693 0 0 0 
146 2 1 3.8215 -15.8264 -8.16867 0 0 0 
148 1 1 6.35855 -12.1886 -7.89999 0 0 0 
151 1 1 6.29972 -11.1444 -4.27873 0 0 0 
147 3 1 1.17731 -15.3463 -5.37664 0 0 0 
150 3 1 13.5572 -10.1176 -7.45997 0 0 0 
149 2 1 9.74211 -9.9062 -7.57385 0 0 0 
153 3 1 2.99999 -14.8034 0.954871 0 0 0 
152 2 1 5.2312 -13.0956 -1.41341 0 0 0 
155 2 1 10.4893 -6.26124 -2.20198 0 0 0 
156 3 1 14.1676 -5.58951 -1.99198 0 0 0 
154 1 1 7.60166 -9.12721 -1.19196 0 0 0 
159 3 1 14.3618 -8.72347 5.0756 0 0 0 
157 1 1 8.12139 -7.08335 2.01549 0 0 0 
158 2 1 11.9232 -7.09259 2.8017 0 0 0 
161 2 1 5.34723 -2.17581 6.07312 0 0 0 
160 1 1 8.02315 -5.20338 5.49481 0 0 0 
163 1 1 8.95182 -4.18308 9.25962 0 0 0 
162 3 1 1.56818 -2.00512 6.48797 0 0 0 
165 3 1 15.3183 -5.70708 11.3064 0 0 0 
164 2 1 12.2301 -3.63852 10.5652 0 0 0 
168 3 1 3.98724 -4.89069 18.7627 0 0 0 
167 2 1 6.17576 -4.52312 15.5971 0 0 0 
166 1 1 9.22778 -3.73782 12.9998 0 0 0 
170 2 1 15.2718 -2.6422 16.5629 0 0 0 
169 1 1 11.3542 -3.35952 16.3605 0 0 0 
172 1 1 12.867 -3.37364 19.7898 0 0 0 
171 3 1 19.0021 -2.78977 15.9487 0 0 0 
173 2 1 15.8248 -5.83268 21.1967 0 0 0 
174 3 1 19.3097 -6.11464 20.0426 0 0 0 
175 1 1 13.0055 -1.94944 23.3506 0 0 0 
176 2 1 15.1366 -3.01954 26.6505 0 0 0 
178 1 1 12.1669 0.583973 26.2784 0 0 0 
179 2 1 13.0608 1.01834 29.7813 0 0 0 
180 3 1 13.2105 2.67297 33.1507 0 0 0 
181 1 1 10.5172 3.82997 27.6634 0 0 0 
177 3 1 16.3125 -5.24967 29.4921 0 0 0 
190 1 1 5.31309 13.4325 30.6295 0 0 0 
187 1 1 7.19031 9.99148 30.8131 0 0 0 
182 2 1 8.87036 6.25142 24.7762 0 0 0 
184 1 1 9.30347 6.75807 29.9752 0 0 0 
183 3 1 9.60064 9.25648 22.5384 0 0 0 
185 2 1 11.2489 7.64454 33.4465 0 0 0 
191 2 1 3.11265 14.4763 27.4677 0 0 0 
192 3 1 -0.131959 13.9751 26.4486 0 0 0 
198 3 1 2.05213 24.2572 24.2721 0 0 0 
197 2 1 1.3314 22.4507 27.4155 0 0 0 
188 2 1 7.41776 11.7458 34.4549 0 0 0 
189 3 1 6.2541 11.1669 38.1706 0 0 0 
195 3 1 3.73981 19.9429 37.7838 0 0 0 
194 2 1 3.05748 18.3027 34.9246 0 0 0 
186 3 1 13.1617 7.65973 36.5511 0 0 0 
193 1 1 3.87488 16.9296 31.163 0 0 0 
196 1 1 2.26215 20.5162 30.7302 0 0 0 
199 1 1 0.811097 23.7562 32.0873 0 0 0 
202 1 1 -0.396281 26.7681 34.0532 0 0 0 
200 2 1 -1.11531 22.4191 35.5691 0 0 0 
201 3 1 -1.60267 20.5857 38.9173 0 0 0 
204 3 1 -1.03536 34.0563 33.1464 0 0 0 
203 2 1 -0.817813 30.4388 32.804 0 0 0 
205 1 1 -1.37884 28.8825 37.1164 0 0 0 
209 2 1 -0.650004 27.1635 43.5461 0 0 0 
210 3 1 -1.04582 23.6438 44.9925 0 0 0 
207 3 1 -4.95898 35.1009 38.1536 0 0 0 
206 2 1 -3.04259 32.3809 37.1113 0 0 0 
213 3 1 -3.49562 38.0764 47.1977 0 0 0 
212 2 1 -2.28402 34.6558 46.214 0 0 0 
211 1 1 -1.37024 31.5365 44.3733 0 0 0 
208 1 1 -1.49795 29.9909 40.8562 0 0 0 
214 1 1 -0.427462 30.7752 47.9764 0 0 0 
218 2 1 -2.20402 34.7733 52.7809 0 0 0 
221 2 1 -1.96103 35.7839 57.2984 0 0 0 
215 2 1 0.331633 27.0692 49.2142 0 0 0 
216 3 1 -0.380289 23.4248 50.1903 0 0 0 
217 1 1 0.553162 32.0586 51.5301 0 0 0 
220 1 1 0.901945 33.5412 55.2247 0 0 0 
219 3 1 -4.19167 37.7015 53.0111 0 0 0 
223 1 1 2.79006 34.0066 58.6499 0 0 0 
229 1 1 5.43497 34.8876 65.5225 0 0 0 
230 2 1 9.15143 33.5505 65.0076 0 0 0 
226 1 1 3.09186 34.6725 62.5065 0 0 0 
224 2 1 6.55988 33.8685 59.1147 0 0 0 
225 3 1 9.86051 35.7193 59.3986 0 0 0 
231 3 1 12.1697 32.255 63.144 0 0 0 
222 3 1 -5.32868 35.3972 59.2307 0 0 0 
228 3 1 -1.79004 37.2765 68.0195 0 0 0 
227 2 1 0.592604 35.1037 65.7935 0 0 0 
233 2 1 5.79159 39.0226 70.5632 0 0 0 
234 3 1 3.19227 40.6202 68.2804 0 0 0 
232 1 1 7.40088 35.9546 68.65 0 0 0 
239 2 1 7.81545 35.9604 78.034 0 0 0 
238 1 1 10.8215 36.6666 75.3471 0 0 0 
235 1 1 9.70529 35.9036 71.7004 0 0 0 
241 1 1 12.5228 37.8891 78.6102 0 0 0 
242 2 1 14.0919 41.581 78.118 0 0 0 
236 2 1 13.2268 33.7785 72.0436 0 0 0 
237 3 1 17.1049 33.8451 71.8832 0 0 0 
243 3 1 13.556 44.8913 77.2174 0 0 0 
255 3 1 24.5848 34.3656 92.056 0 0 0 
240 3 1 4.03895 36.6195 78.8865 0 0 0 
248 2 1 18.5707 34.7791 86.3821 0 0 0 
247 1 1 15.6135 37.3351 85.6355 0 0 0 
250 1 1 15.9907 37.1739 89.4607 0 0 0 
249 3 1 21.2357 32.6061 85.6367 0 0 0 
254 2 1 21.4587 35.5823 93.4193 0 0 0 
244 1 1 14.1697 38.2145 82.0665 0 0 0 
245 2 1 14.4363 41.6934 84.1274 0 0 0 
246 3 1 12.4358 44.289 85.9152 0 0 0 
259 1 1 20.4999 36.1877 99.9281 0 0 0 
261 3 1 28.2384 37.0322 99.9195 0 0 0 
260 2 1 24.502 37.3368 100.316 0 0 0 
262 1 1 21.3904 35.5977 103.658 0 0 0 
251 2 1 13.8716 40.1122 91.511 0 0 0 
256 1 1 18.248 36.3524 96.7319 0 0 0 
253 1 1 17.5871 36.6054 92.901 0 0 0 
257 2 1 15.805 36.1711 99.9212 0 0 0 
258 3 1 12.734 34.1123 100.32 0 0 0 
252 3 1 12.4184 43.2342 91.7435 0 0 0 
267 3 1 26.3822 35.9922 113.256 0 0 0 
269 2 1 19.2148 30.4421 110.96 0 0 0 
266 2 1 25.448 35.5631 109.96 0 0 0 
268 1 1 23.0184 31.3553 109.627 0 0 0 
265 1 1 23.0099 34.3481 107.165 0 0 0 
263 2 1 18.3553 34.0195 105.828 0 0 0 
264 3 1 15.9486 31.211 106.66 0 0 0 
276 3 1 18.9598 24.2636 119.583 0 0 0 
270 3 1 17.5183 27.2958 109.551 0 0 0 
273 3 1 17.8665 23.9307 113.604 0 0 0 
272 2 1 21.0903 25.4756 112.567 0 0 0 
271 1 1 23.6178 28.6008 112.214 0 0 0 
275 2 1 22.3008 25.0527 117.831 0 0 0 
274 1 1 25.1102 26.9806 115.516 0 0 0 
277 1 1 27.3275 26.8193 118.61 0 0 0 
280 1 1 29.9152 27.5225 121.428 0 0 0 
278 2 1 27.159 23.57 121.123 0 0 0 
294 3 1 41.9867 37.5087 115.8 0 0 0 
293 2 1 42.0974 37.4838 119.635 0 0 0 
302 2 1 41.9399 48.534 116.476 0 0 0 
303 3 1 38.9624 48.4798 113.979 0 0 0 
306 3 1 41.0251 53.6138 113.934 0 0 0 
304 1 1 45.8113 50.355 118.795 0 0 0 
305 2 1 43.4824 52.9108 116.689 0 0 0 
309 3 1 46.457 58.6723 113.084 0 0 0 
308 2 1 46.8957 56.737 116.333 0 0 0 
315 3 1 56.7434 58.8618 110.827 0 0 0 
279 3 1 25.4592 22.8815 124.118 0 0 0 
282 3 1 30.6428 22.6991 127.425 0 0 0 
281 2 1 30.8827 25.1922 124.749 0 0 0 
283 1 1 32.8169 28.9201 123.69 0 0 0 
284 2 1 33.707 28.6419 127.703 0 0 0 
285 3 1 33.3152 29.323 131.171 0 0 0 
288 3 1 40.7288 30.0937 130.896 0 0 0 
286 1 1 35.9388 30.8871 124.773 0 0 0 
287 2 1 38.9415 30.8099 127.517 0 0 0 
289 1 1 38.2169 33.87 124.663 0 0 0 
292 1 1 39.9347 36.8777 123.017 0 0 0 
290 2 1 39.6122 35.6352 128.036 0 0 0 
291 3 1 41.5058 36.0849 131.096 0 0 0 
297 3 1 43.0085 44.3344 129.362 0 0 0 
295 1 1 41.3577 40.5433 122.975 0 0 0 
299 2 1 44.4155 46.2043 124.553 0 0 0 
300 3 1 44.5144 48.7161 126.982 0 0 0 
296 2 1 42.0606 42.1158 126.65 0 0 0 
298 1 1 42.6576 43.9498 121.64 0 0 0 
301 1 1 43.917 47.1309 119.813 0 0 0 
307 1 1 48.1992 53.4482 118.281 0 0 0 
310 1 1 51.2783 55.8345 118.461 0 0 0 
313 1 1 54.0153 58.4103 117.611 0 0 0 
312 3 1 55.2496 56.8175 124.934 0 0 0 
311 2 1 52.6836 56.8335 122.105 0 0 0 
317 2 1 58.4501 60.1944 122.364 0 0 0 
314 2 1 55.7817 59.606 114.073 0 0 0 
316 1 1 56.6257 61.1949 118.894 0 0 0 
318 3 1 59.1295 59.955 126.204 0 0 0 
ITEM: TIMESTEP
200000
ITEM: NUMBER OF ATOMS
318
ITEM: BOX BOUNDS pp pp pp
-212.968 212.968
-212.968 212.968
-212.968 212.968
ITEM: ATOMS id type mol x y z ix iy iz 
66 3 1 -43.3026 -38.0119 -38.0826 0 0 0 
60 3 1 -41.1214 -33.9169 -34.7329 0 0 0 
57 3 1 -38.4806 -28.0155 -32.1584 0 0 0 
11 2 1 -23.942 22.9173 -33.149 0 0 0 
12 3 1 -25.7588 25.1318 -30.7626 0 0 0 
8 2 1 -18.5459 19.9501 -35.8856 0 0 0 
9 3 1 -15.9197 20.0294 -33.1841 0 0 0 
6 3 1 -25.2808 18.1374 -43.9467 0 0 0 
123 3 1 -8.59281 -45.074 -33.4506 0 0 0 
134 2 1 5.65132 -53.1958 -34.6473 0 0 0 
135 3 1 3.79537 -55.6429 -36.8687 0 0 0 
137 2 1 11.0642 -52.0379 -35.6558 0 0 0 
76 1 1 -52.1434 -49.3776 -30.5211 0 0 0 
73 1 1 -52.5155 -45.8482 -32.076 0 0 0 
75 3 1 -59.662 -47.7488 -31.2797 0 0 0 
74 2 1 -56.4243 -47.2252 -32.6227 0 0 0 
70 1 1 -50.8919 -42.3552 -32.7718 0 0 0 
71 2 1 -47.9317 -44.2944 -30.6438 0 0 0 
72 3 1 -44.8363 -45.3039 -29.4192 0 0 0 
138 3 1 11.8025 -54.3499 -38.3496 0 0 0 
144 3 1 19.7032 -55.9751 -29.4112 0 0 0 
143 2 1 18.5081 -52.6615 -28.4486 0 0 0 
147 3 1 24.0684 -43.352 -32.792 0 0 0 
69 3 1 -54.2376 -40.7739 -39.0701 0 0 0 
62 2 1 -51.4447 -31.4599 -34.2941 0 0 0 
68 2 1 -53.3749 -39.3747 -35.4948 0 0 0 
63 3 1 -54.977 -30.0419 -33.6466 0 0 0 
65 2 1 -46.4402 -37.8435 -36.2705 0 0 0 
67 1 1 -50.1168 -38.7845 -33.9 0 0 0 
64 1 1 -48.6606 -35.1999 -34.3902 0 0 0 
53 2 1 -48.0483 -22.7302 -34.1723 0 0 0 
54 3 1 -50.6315 -24.0931 -31.8556 0 0 0 
56 2 1 -41.4453 -26.7926 -33.5932 0 0 0 
59 2 1 -43.3524 -30.9103 -34.6718 0 0 0 
61 1 1 -47.9088 -31.3675 -34.4118 0 0 0 
58 1 1 -45.883 -28.1405 -34.2013 0 0 0 
55 1 1 -44.5388 -24.5031 -34.2853 0 0 0 
47 2 1 -49.21 -15.7742 -33.3602 0 0 0 
51 3 1 -37.7457 -17.2639 -33.6647 0 0 0 
52 1 1 -44.4541 -20.7036 -34.1137 0 0 0 
50 2 1 -41.2106 -17.563 -32.7969 0 0 0 
49 1 1 -44.8989 -16.8524 -33.7356 0 0 0 
46 1 1 -46.1082 -13.1847 -33.1347 0 0 0 
44 2 1 -49.8919 -11.1229 -33.1524 0 0 0 
41 2 1 -43.4855 -7.62724 -29.1043 0 0 0 
40 1 1 -45.1391 -5.71311 -31.9831 0 0 0 
43 1 1 -46.3018 -9.29791 -32.5957 0 0 0 
42 3 1 -40.5203 -9.11869 -27.6671 0 0 0 
36 3 1 -50.7345 1.87155 -36.8339 0 0 0 
35 2 1 -47.3837 1.19648 -35.3128 0 0 0 
30 3 1 -47.0203 10.9225 -35.8916 0 0 0 
29 2 1 -44.0047 8.89688 -34.8878 0 0 0 
28 1 1 -40.4411 8.56735 -32.9011 0 0 0 
24 3 1 -40.9742 14.0742 -37.6499 0 0 0 
23 2 1 -38.2146 14.9861 -35.7305 0 0 0 
22 1 1 -35.5563 14.2641 -32.8018 0 0 0 
19 1 1 -32.2283 16.1445 -32.1527 0 0 0 
17 2 1 -28.2534 17.0182 -28.7886 0 0 0 
14 2 1 -29.7718 18.6305 -37.706 0 0 0 
16 1 1 -28.9256 18.0222 -32.7083 0 0 0 
15 3 1 -33.0075 16.6105 -38.4814 0 0 0 
13 1 1 -26.5749 19.7356 -35.3888 0 0 0 
10 1 1 -23.2683 21.0908 -36.6713 0 0 0 
3 3 1 -11.5163 23.7864 -40.7969 0 0 0 
2 2 1 -13.6029 21.7194 -43.1058 0 0 0 
1 1 1 -16.5451 21.897 -45.9412 0 0 0 
5 2 1 -22.4075 20.2719 -44.1792 0 0 0 
7 1 1 -20.3371 21.1473 -39.3918 0 0 0 
4 1 1 -18.7444 21.4645 -42.7771 0 0 0 
87 3 1 -52.6189 -57.3747 -16.5336 0 0 0 
117 3 1 -17.1563 -45.4288 -24.7891 0 0 0 
79 1 1 -51.8726 -52.5515 -28.2842 0 0 0 
81 3 1 -55.5686 -59.1711 -29.209 0 0 0 
86 2 1 -50.7509 -56.416 -19.3432 0 0 0 
80 2 1 -53.4624 -56.2225 -28.8024 0 0 0 
85 1 1 -48.4408 -56.5997 -22.7924 0 0 0 
88 1 1 -45.8581 -58.4712 -20.5144 0 0 0 
83 2 1 -48.1581 -58.0536 -27.0369 0 0 0 
82 1 1 -50.3266 -54.8605 -25.7521 0 0 0 
84 3 1 -45.1737 -58.4697 -29.5368 0 0 0 
100 1 1 -31.8463 -58.0797 -19.505 0 0 0 
101 2 1 -31.8656 -55.4199 -22.6179 0 0 0 
104 2 1 -26.4258 -56.7296 -23.1015 0 0 0 
105 3 1 -25.8478 -58.5446 -26.0941 0 0 0 
119 2 1 -8.42927 -51.9254 -23.1794 0 0 0 
116 2 1 -15.8007 -49.0061 -24.9749 0 0 0 
115 1 1 -15.0326 -51.7109 -22.9871 0 0 0 
118 1 1 -11.8674 -50.4751 -24.8724 0 0 0 
122 2 1 -8.53072 -47.1351 -30.2945 0 0 0 
121 1 1 -9.08374 -49.5467 -27.367 0 0 0 
124 1 1 -5.53182 -50.84 -28.6014 0 0 0 
127 1 1 -1.92132 -51.2265 -30.1949 0 0 0 
125 2 1 -3.18432 -53.2564 -26.1829 0 0 0 
126 3 1 -2.44837 -56.4983 -24.9979 0 0 0 
129 3 1 -0.0906616 -51.8169 -37.4891 0 0 0 
128 2 1 -0.733808 -51.8532 -34.109 0 0 0 
130 1 1 1.88594 -51.1386 -29.88 0 0 0 
133 1 1 5.56703 -51.3755 -31.2467 0 0 0 
136 1 1 9.28056 -50.9132 -32.1418 0 0 0 
139 1 1 12.8349 -49.8951 -30.8804 0 0 0 
140 2 1 12.4276 -46.547 -28.5783 0 0 0 