ITEM: TIMESTEP
0
ITEM: NUMBER OF ATOMS
324
ITEM: BOX BOUNDS pp pp pp
-214.299 214.299
-214.299 214.299
-214.299 214.299
ITEM: ATOMS id type mol x y z ix iy iz 
1 1 1 -31.3795 -38.8585 -188.752 0 0 0 
2 2 1 -34.769 -38.917 -186.88 0 0 0 
3 3 1 -38.2151 -39.6229 -185.638 0 0 0 
4 1 1 -30.794 -38.1233 -185.233 0 0 0 
5 2 1 -27.2665 -39.0625 -186.131 0 0 0 
6 3 1 -23.6793 -40.0334 -185.306 0 0 0 
8 2 1 -33.598 -37.4466 -179.844 0 0 0 
9 3 1 -37.044 -38.1526 -178.601 0 0 0 
7 1 1 -30.2084 -37.3882 -181.715 0 0 0 
10 1 1 -29.6229 -36.653 -178.196 0 0 0 
11 2 1 -26.0954 -37.5922 -179.094 0 0 0 
12 3 1 -22.5082 -38.563 -178.269 0 0 0 
13 1 1 -29.0374 -35.9178 -174.678 0 0 0 
14 2 1 -32.4269 -35.9763 -172.807 0 0 0 
15 3 1 -35.873 -36.6823 -171.564 0 0 0 
20 2 1 -31.2558 -34.506 -165.77 0 0 0 
21 3 1 -34.7019 -35.2119 -164.528 0 0 0 
16 1 1 -28.4519 -35.1827 -171.16 0 0 0 
17 2 1 -24.9244 -36.1219 -172.057 0 0 0 
18 3 1 -21.3372 -37.0927 -171.232 0 0 0 
19 1 1 -27.8663 -34.4475 -167.641 0 0 0 
22 1 1 -27.2808 -33.7124 -164.123 0 0 0 
23 2 1 -23.7533 -34.6515 -165.02 0 0 0 
24 3 1 -20.1661 -35.6224 -164.195 0 0 0 
27 3 1 -33.5309 -33.7416 -157.491 0 0 0 
25 1 1 -26.6953 -32.9772 -160.604 0 0 0 
26 2 1 -30.0848 -33.0357 -158.733 0 0 0 
28 1 1 -26.1097 -32.242 -157.086 0 0 0 
29 2 1 -22.5823 -33.1812 -157.984 0 0 0 
31 1 1 -25.5242 -31.5069 -153.568 0 0 0 
30 3 1 -18.995 -34.1521 -157.159 0 0 0 
33 3 1 -32.3598 -32.2713 -150.454 0 0 0 
39 3 1 -31.1887 -30.8009 -143.417 0 0 0 
32 2 1 -28.9137 -31.5653 -151.696 0 0 0 
34 1 1 -24.9387 -30.7717 -150.049 0 0 0 
35 2 1 -21.4112 -31.7109 -150.947 0 0 0 
36 3 1 -17.824 -32.6817 -150.122 0 0 0 
42 3 1 -16.6529 -31.2114 -143.085 0 0 0 
37 1 1 -24.3531 -30.0365 -146.531 0 0 0 
38 2 1 -27.7427 -30.095 -144.66 0 0 0 
40 1 1 -23.7676 -29.3014 -143.012 0 0 0 
41 2 1 -20.2401 -30.2406 -143.91 0 0 0 
43 1 1 -23.1821 -28.5662 -139.494 0 0 0 
44 2 1 -26.5716 -28.6247 -137.623 0 0 0 
45 3 1 -30.0177 -29.3306 -136.38 0 0 0 
46 1 1 -22.5965 -27.831 -135.976 0 0 0 
47 2 1 -19.0691 -28.7702 -136.873 0 0 0 
48 3 1 -15.4819 -29.7411 -136.048 0 0 0 
49 1 1 -22.011 -27.0959 -132.457 0 0 0 
50 2 1 -25.4005 -27.1544 -130.586 0 0 0 
51 3 1 -28.8466 -27.8603 -129.344 0 0 0 
52 1 1 -21.4255 -26.3607 -128.939 0 0 0 
55 1 1 -20.84 -25.6256 -125.42 0 0 0 
56 2 1 -24.2295 -25.684 -123.549 0 0 0 
53 2 1 -17.898 -27.2999 -129.837 0 0 0 
54 3 1 -14.3108 -28.2708 -129.011 0 0 0 
59 2 1 -16.7269 -25.8296 -122.8 0 0 0 
57 3 1 -27.6755 -26.39 -122.307 0 0 0 
62 2 1 -23.0584 -24.2137 -116.512 0 0 0 
63 3 1 -26.5045 -24.9196 -115.27 0 0 0 
58 1 1 -20.2544 -24.8904 -121.902 0 0 0 
60 3 1 -13.1397 -26.8004 -121.975 0 0 0 
61 1 1 -19.6689 -24.1552 -118.384 0 0 0 
64 1 1 -19.0834 -23.4201 -114.865 0 0 0 
65 2 1 -15.5559 -24.3592 -115.763 0 0 0 
66 3 1 -11.9687 -25.3301 -114.938 0 0 0 
68 2 1 -21.8874 -22.7434 -109.475 0 0 0 
69 3 1 -25.3334 -23.4493 -108.233 0 0 0 
74 2 1 -20.7163 -21.2731 -102.439 0 0 0 
67 1 1 -18.4978 -22.6849 -111.347 0 0 0 
70 1 1 -17.9123 -21.9497 -107.828 0 0 0 
71 2 1 -14.3848 -22.8889 -108.726 0 0 0 
72 3 1 -10.7976 -23.8598 -107.901 0 0 0 
73 1 1 -17.3268 -21.2146 -104.31 0 0 0 
75 3 1 -24.1623 -21.979 -101.196 0 0 0 
81 3 1 -22.9913 -20.5086 -94.1596 0 0 0 
76 1 1 -16.7412 -20.4794 -100.792 0 0 0 
77 2 1 -13.2138 -21.4186 -101.689 0 0 0 
78 3 1 -9.62656 -22.3895 -100.864 0 0 0 
84 3 1 -8.4555 -20.9191 -93.8274 0 0 0 
79 1 1 -16.1557 -19.7443 -97.2732 0 0 0 
80 2 1 -19.5452 -19.8027 -95.4019 0 0 0 
82 1 1 -15.5702 -19.0091 -93.7548 0 0 0 
83 2 1 -12.0427 -19.9483 -94.6525 0 0 0 
87 3 1 -21.8202 -19.0383 -87.1228 0 0 0 
85 1 1 -14.9846 -18.2739 -90.2364 0 0 0 
86 2 1 -18.3742 -18.3324 -88.3651 0 0 0 
88 1 1 -14.3991 -17.5388 -86.718 0 0 0 
89 2 1 -10.8717 -18.4779 -87.6157 0 0 0 
91 1 1 -13.8136 -16.8036 -83.1996 0 0 0 
90 3 1 -7.28443 -19.4488 -86.7906 0 0 0 
93 3 1 -20.6492 -17.568 -80.0861 0 0 0 
92 2 1 -17.2031 -16.8621 -81.3283 0 0 0 
94 1 1 -13.228 -16.0684 -79.6812 0 0 0 
97 1 1 -12.6425 -15.3333 -76.1628 0 0 0 
98 2 1 -16.032 -15.3918 -74.2915 0 0 0 
99 3 1 -19.4781 -16.0977 -73.0493 0 0 0 
100 1 1 -12.057 -14.5981 -72.6444 0 0 0 
95 2 1 -9.70059 -17.0076 -80.5789 0 0 0 
96 3 1 -6.11337 -17.9785 -79.7538 0 0 0 
101 2 1 -8.52953 -15.5373 -73.5421 0 0 0 
102 3 1 -4.94231 -16.5082 -72.7169 0 0 0 
103 1 1 -11.4715 -13.8629 -69.126 0 0 0 
104 2 1 -14.861 -13.9214 -67.2547 0 0 0 
105 3 1 -18.3071 -14.6273 -66.0125 0 0 0 
106 1 1 -10.8859 -13.1278 -65.6076 0 0 0 
109 1 1 -10.3004 -12.3926 -62.0892 0 0 0 
107 2 1 -7.35847 -14.067 -66.5053 0 0 0 
108 3 1 -3.77125 -15.0378 -65.6801 0 0 0 
110 2 1 -13.6899 -12.4511 -60.2179 0 0 0 
111 3 1 -17.136 -13.157 -58.9757 0 0 0 
116 2 1 -12.5189 -10.9808 -53.1811 0 0 0 
117 3 1 -15.9649 -11.6867 -51.9389 0 0 0 
112 1 1 -9.71487 -11.6575 -58.5708 0 0 0 
113 2 1 -6.18741 -12.5966 -59.4685 0 0 0 
114 3 1 -2.60019 -13.5675 -58.6433 0 0 0 
115 1 1 -9.12934 -10.9223 -55.0524 0 0 0 
119 2 1 -5.01635 -11.1263 -52.4317 0 0 0 
120 3 1 -1.42913 -12.0972 -51.6065 0 0 0 
118 1 1 -8.54381 -10.1871 -51.534 0 0 0 
123 3 1 -14.7939 -10.2164 -44.9021 0 0 0 
126 3 1 -0.258066 -10.6268 -44.5697 0 0 0 
122 2 1 -11.3478 -9.51044 -46.1443 0 0 0 
121 1 1 -7.95828 -9.45196 -48.0156 0 0 0 
124 1 1 -7.37275 -8.7168 -44.4972 0 0 0 
125 2 1 -3.84528 -9.65598 -45.3949 0 0 0 
127 1 1 -6.78722 -7.98163 -40.9788 0 0 0 
129 3 1 -13.6228 -8.74604 -37.8652 0 0 0 
135 3 1 -12.4517 -7.27571 -30.8284 0 0 0 
128 2 1 -10.1767 -8.04012 -39.1075 0 0 0 
130 1 1 -6.20169 -7.24647 -37.4604 0 0 0 
131 2 1 -2.67422 -8.18566 -38.3581 0 0 0 
133 1 1 -5.61616 -6.51131 -33.942 0 0 0 
134 2 1 -9.00567 -6.56979 -32.0707 0 0 0 
137 2 1 -1.50316 -6.71533 -31.3213 0 0 0 
132 3 1 0.912995 -9.15652 -37.5329 0 0 0 
141 3 1 -11.2807 -5.80539 -23.7916 0 0 0 
136 1 1 -5.03063 -5.77614 -30.4236 0 0 0 
139 1 1 -4.4451 -5.04098 -26.9052 0 0 0 
140 2 1 -7.83461 -5.09946 -25.0339 0 0 0 
142 1 1 -3.85956 -4.30582 -23.3868 0 0 0 
143 2 1 -0.332099 -5.245 -24.2845 0 0 0 
138 3 1 2.08406 -7.68619 -30.4962 0 0 0 
144 3 1 3.25512 -6.21586 -23.4593 0 0 0 
145 1 1 -3.27403 -3.57065 -19.8684 0 0 0 
146 2 1 -6.66355 -3.62914 -17.9971 0 0 0 
147 3 1 -10.1096 -4.33506 -16.7548 0 0 0 
148 1 1 -2.6885 -2.83549 -16.35 0 0 0 
151 1 1 -2.10297 -2.10033 -12.8316 0 0 0 
152 2 1 -5.49249 -2.15881 -10.9603 0 0 0 
149 2 1 0.838961 -3.77467 -17.2477 0 0 0 
150 3 1 4.42618 -4.74554 -16.4225 0 0 0 
155 2 1 2.01002 -2.30435 -10.2109 0 0 0 
153 3 1 -8.93856 -2.86473 -9.71804 0 0 0 
154 1 1 -1.51744 -1.36516 -9.31319 0 0 0 
157 1 1 -0.931911 -0.629998 -5.79479 0 0 0 
158 2 1 -4.32143 -0.688482 -3.92353 0 0 0 
159 3 1 -7.7675 -1.3944 -2.68124 0 0 0 
156 3 1 5.59724 -3.27521 -9.38575 0 0 0 
161 2 1 3.18108 -0.83402 -3.17409 0 0 0 
162 3 1 6.7683 -1.80488 -2.34895 0 0 0 
160 1 1 -0.34638 0.105164 -2.27638 0 0 0 
168 3 1 7.93936 -0.334554 4.68786 0 0 0 
164 2 1 -3.15037 0.781844 3.11327 0 0 0 
165 3 1 -6.59644 0.075921 4.35556 0 0 0 
170 2 1 -1.97931 2.25217 10.1501 0 0 0 
163 1 1 0.23915 0.840328 1.24202 0 0 0 
166 1 1 0.82468 1.57549 4.76042 0 0 0 
167 2 1 4.35215 0.636306 3.86271 0 0 0 
169 1 1 1.41021 2.31066 8.27882 0 0 0 
171 3 1 -5.42537 1.54625 11.3924 0 0 0 
176 2 1 -0.808244 3.7225 17.1869 0 0 0 
177 3 1 -4.25431 3.01658 18.4292 0 0 0 
172 1 1 1.99574 3.04582 11.7972 0 0 0 
173 2 1 5.52321 2.10663 10.8995 0 0 0 
174 3 1 9.11042 1.13577 11.7247 0 0 0 
175 1 1 2.58127 3.78098 15.3156 0 0 0 
178 1 1 3.1668 4.51615 18.834 0 0 0 
179 2 1 6.69427 3.57696 17.9363 0 0 0 
180 3 1 10.2815 2.6061 18.7614 0 0 0 
183 3 1 -3.08325 4.4869 25.466 0 0 0 
181 1 1 3.75233 5.25131 22.3524 0 0 0 
182 2 1 0.362816 5.19283 24.2237 0 0 0 
184 1 1 4.33786 5.98647 25.8708 0 0 0 
185 2 1 7.86533 5.04729 24.9731 0 0 0 
187 1 1 4.9234 6.72164 29.3892 0 0 0 
186 3 1 11.4525 4.07643 25.7983 0 0 0 
189 3 1 -1.91219 5.95723 32.5028 0 0 0 
195 3 1 -0.74113 7.42756 39.5396 0 0 0 
188 2 1 1.53388 6.66315 31.2605 0 0 0 
190 1 1 5.50893 7.4568 32.9076 0 0 0 
191 2 1 9.03639 6.51761 32.0099 0 0 0 
193 1 1 6.09446 8.19196 36.426 0 0 0 
194 2 1 2.70494 8.13348 38.2973 0 0 0 
196 1 1 6.67999 8.92713 39.9444 0 0 0 
192 3 1 12.6236 5.54675 32.8351 0 0 0 
197 2 1 10.2074 7.98794 39.0467 0 0 0 
198 3 1 13.7947 7.01708 39.8719 0 0 0 
199 1 1 7.26552 9.66229 43.4628 0 0 0 
200 2 1 3.876 9.60381 45.3341 0 0 0 
201 3 1 0.429931 8.89788 46.5764 0 0 0 
203 2 1 11.3785 9.45827 46.0835 0 0 0 
204 3 1 14.9657 8.48741 46.9087 0 0 0 
202 1 1 7.85105 10.3974 46.9812 0 0 0 
205 1 1 8.43658 11.1326 50.4996 0 0 0 
210 3 1 16.1368 9.95773 53.9455 0 0 0 
206 2 1 5.04706 11.0741 52.3709 0 0 0 
207 3 1 1.60099 10.3682 53.6132 0 0 0 
208 1 1 9.02211 11.8678 54.018 0 0 0 
211 1 1 9.60764 12.6029 57.5364 0 0 0 
212 2 1 6.21812 12.5445 59.4077 0 0 0 
213 3 1 2.77205 11.8385 60.65 0 0 0 
214 1 1 10.1932 13.3381 61.0548 0 0 0 
209 2 1 12.5496 10.9286 53.1203 0 0 0 
215 2 1 13.7206 12.3989 60.1571 0 0 0 
216 3 1 17.3078 11.4281 60.9823 0 0 0 
218 2 1 7.38919 14.0148 66.4445 0 0 0 
219 3 1 3.94312 13.3089 67.6868 0 0 0 
217 1 1 10.7787 14.0733 64.5732 0 0 0 
220 1 1 11.3642 14.8084 68.0916 0 0 0 
221 2 1 14.8917 13.8692 67.1939 0 0 0 
222 3 1 18.4789 12.8984 68.0191 0 0 0 
224 2 1 8.56025 15.4851 73.4813 0 0 0 
225 3 1 5.11418 14.7792 74.7236 0 0 0 
230 2 1 9.73131 16.9554 80.5181 0 0 0 
223 1 1 11.9498 15.5436 71.61 0 0 0 
226 1 1 12.5353 16.2788 75.1284 0 0 0 
227 2 1 16.0628 15.3396 74.2307 0 0 0 
228 3 1 19.65 14.3687 75.0559 0 0 0 
229 1 1 13.1208 17.0139 78.6468 0 0 0 
233 2 1 17.2338 16.8099 81.2675 0 0 0 
231 3 1 6.28524 16.2495 81.7604 0 0 0 
237 3 1 7.4563 17.7198 88.7972 0 0 0 
232 1 1 13.7064 17.7491 82.1652 0 0 0 
235 1 1 14.2919 18.4842 85.6836 0 0 0 
236 2 1 10.9024 18.4258 87.5549 0 0 0 
238 1 1 14.8774 19.2194 89.202 0 0 0 
239 2 1 18.4049 18.2802 88.3043 0 0 0 
234 3 1 20.821 15.839 82.0927 0 0 0 
240 3 1 21.9921 17.3094 89.1295 0 0 0 
243 3 1 8.62736 19.1902 95.834 0 0 0 
241 1 1 15.4629 19.9546 92.7204 0 0 0 
242 2 1 12.0734 19.8961 94.5917 0 0 0 
245 2 1 19.5759 19.7506 95.3411 0 0 0 
246 3 1 23.1632 18.7797 96.1663 0 0 0 
244 1 1 16.0485 20.6897 96.2388 0 0 0 
247 1 1 16.634 21.4249 99.7572 0 0 0 
248 2 1 13.2445 21.3664 101.628 0 0 0 
252 3 1 24.3342 20.25 103.203 0 0 0 
249 3 1 9.79842 20.6605 102.871 0 0 0 
250 1 1 17.2195 22.1601 103.276 0 0 0 
253 1 1 17.8051 22.8952 106.794 0 0 0 
254 2 1 14.4155 22.8367 108.665 0 0 0 
255 3 1 10.9695 22.1308 109.907 0 0 0 
256 1 1 18.3906 23.6304 110.312 0 0 0 
251 2 1 20.747 21.2209 102.378 0 0 0 
257 2 1 21.9181 22.6912 109.415 0 0 0 
258 3 1 25.5053 21.7203 110.24 0 0 0 
259 1 1 18.9761 24.3656 113.831 0 0 0 
260 2 1 15.5866 24.3071 115.702 0 0 0 
261 3 1 12.1405 23.6012 116.944 0 0 0 
262 1 1 19.5617 25.1007 117.349 0 0 0 
265 1 1 20.1472 25.8359 120.868 0 0 0 
263 2 1 23.0891 24.1615 116.451 0 0 0 
264 3 1 26.6763 23.1907 117.277 0 0 0 
266 2 1 16.7577 25.7774 122.739 0 0 0 
267 3 1 13.3116 25.0715 123.981 0 0 0 
272 2 1 17.9287 27.2477 129.776 0 0 0 
273 3 1 14.4827 26.5418 131.018 0 0 0 
268 1 1 20.7327 26.571 124.386 0 0 0 
269 2 1 24.2602 25.6319 123.488 0 0 0 
270 3 1 27.8474 24.661 124.313 0 0 0 
271 1 1 21.3182 27.3062 127.904 0 0 0 
274 1 1 21.9038 28.0414 131.423 0 0 0 
275 2 1 25.4312 27.1022 130.525 0 0 0 
276 3 1 29.0185 26.1313 131.35 0 0 0 
278 2 1 19.0998 28.7181 136.812 0 0 0 
279 3 1 15.6537 28.0121 138.055 0 0 0 
277 1 1 22.4893 28.7765 134.941 0 0 0 
280 1 1 23.0748 29.5117 138.46 0 0 0 
281 2 1 26.6023 28.5725 137.562 0 0 0 
282 3 1 30.1895 27.6017 138.387 0 0 0 
283 1 1 23.6604 30.2469 141.978 0 0 0 
284 2 1 20.2709 30.1884 143.849 0 0 0 
285 3 1 16.8248 29.4825 145.091 0 0 0 
287 2 1 27.7734 30.0428 144.599 0 0 0 
288 3 1 31.3606 29.072 145.424 0 0 0 
294 3 1 32.5316 30.5423 152.461 0 0 0 
291 3 1 17.9959 30.9528 152.128 0 0 0 
286 1 1 24.2459 30.982 145.496 0 0 0 
289 1 1 24.8314 31.7172 149.015 0 0 0 
290 2 1 21.4419 31.6587 150.886 0 0 0 
292 1 1 25.417 32.4524 152.533 0 0 0 
293 2 1 28.9444 31.5132 151.636 0 0 0 
297 3 1 19.1669 32.4231 159.165 0 0 0 
295 1 1 26.0025 33.1875 156.052 0 0 0 
296 2 1 22.613 33.129 157.923 0 0 0 
298 1 1 26.588 33.9227 159.57 0 0 0 
299 2 1 30.1155 32.9835 158.672 0 0 0 
301 1 1 27.1736 34.6579 163.088 0 0 0 
300 3 1 33.7027 32.0126 159.497 0 0 0 
303 3 1 20.338 33.8934 166.202 0 0 0 
302 2 1 23.784 34.5994 164.96 0 0 0 
304 1 1 27.7591 35.393 166.607 0 0 0 
307 1 1 28.3446 36.1282 170.125 0 0 0 
308 2 1 24.9551 36.0697 171.996 0 0 0 
309 3 1 21.509 35.3638 173.239 0 0 0 
305 2 1 31.2865 34.4538 165.709 0 0 0 
306 3 1 34.8738 33.483 166.534 0 0 0 
311 2 1 32.4576 35.9241 172.746 0 0 0 
310 1 1 28.9302 36.8633 173.644 0 0 0 
313 1 1 29.5157 37.5985 177.162 0 0 0 
314 2 1 26.1262 37.54 179.033 0 0 0 
315 3 1 22.6801 36.8341 180.275 0 0 0 
316 1 1 30.1012 38.3337 180.68 0 0 0 
312 3 1 36.0448 34.9533 173.571 0 0 0 
317 2 1 33.6287 37.3945 179.783 0 0 0 
318 3 1 37.2159 36.4236 180.608 0 0 0 
320 2 1 27.2972 39.0103 186.07 0 0 0 
321 3 1 23.8512 38.3044 187.312 0 0 0 
319 1 1 30.6867 39.0688 184.199 0 0 0 
322 1 1 31.2723 39.804 187.717 0 0 0 
323 2 1 34.7997 38.8648 186.82 0 0 0 
324 3 1 38.387 37.8939 187.645 0 0 0 
ITEM: TIMESTEP
100000
ITEM: NUMBER OF ATOMS
324
ITEM: BOX BOUNDS pp pp pp
-214.299 214.299
-214.299 214.299
-214.299 214.299
ITEM: ATOMS id type mol x y z ix iy iz 
2 2 1 -43.0186 -53.3718 -155.613 0 0 0 
3 3 1 -41.8717 -56.3329 -157.556 0 0 0 
9 3 1 -34.9609 -48.5385 -155.879 0 0 0 
15 3 1 -28.9787 -44.6466 -152.447 0 0 0 
1 1 1 -46.2197 -53.671 -153.368 0 0 0 
5 2 1 -43.735 -49.2451 -148.515 0 0 0 
4 1 1 -43.6169 -51.449 -151.595 0 0 0 
6 3 1 -42.6239 -48.2795 -145.403 0 0 0 
7 1 1 -39.9447 -50.3406 -150.752 0 0 0 
8 2 1 -38.0111 -48.9924 -154.082 0 0 0 
11 2 1 -37.1166 -46.2599 -146.221 0 0 0 
10 1 1 -36.8955 -48.4699 -149.467 0 0 0 
14 2 1 -30.7703 -47.7078 -151.49 0 0 0 
13 1 1 -33.6636 -46.5593 -148.904 0 0 0 
16 1 1 -30.893 -43.9231 -147.549 0 0 0 
19 1 1 -27.8309 -41.7963 -146.645 0 0 0 
17 2 1 -32.0058 -40.934 -145.993 0 0 0 
20 2 1 -24.1755 -42.3579 -148.195 0 0 0 
22 1 1 -25.9537 -38.9312 -144.845 0 0 0 
27 3 1 -15.8832 -37.7361 -146.266 0 0 0 
21 3 1 -20.7202 -42.5715 -148.086 0 0 0 
26 2 1 -19.5637 -37.7314 -145.092 0 0 0 
12 3 1 -36.2042 -42.872 -147.676 0 0 0 
18 3 1 -32.4159 -37.3295 -146.858 0 0 0 
23 2 1 -27.6543 -37.0586 -141.912 0 0 0 
24 3 1 -30.1413 -35.4267 -140.237 0 0 0 
25 1 1 -23.0348 -36.8266 -143.252 0 0 0 
28 1 1 -20.7911 -34.4478 -141.143 0 0 0 
31 1 1 -20.7251 -32.153 -138.098 0 0 0 
32 2 1 -23.1383 -33.8474 -135.408 0 0 0 
33 3 1 -25.5416 -36.4144 -134.432 0 0 0 
29 2 1 -17.3422 -33.1464 -141.79 0 0 0 
34 1 1 -20.8161 -30.5333 -134.641 0 0 0 
35 2 1 -20.533 -27.3104 -133.333 0 0 0 
30 3 1 -15.2132 -31.3643 -139.76 0 0 0 
37 1 1 -21.8203 -30.6976 -130.789 0 0 0 
36 3 1 -21.4047 -24.5361 -135.752 0 0 0 
42 3 1 -20.407 -23.8358 -124.301 0 0 0 
39 3 1 -28.24 -34.5259 -129.167 0 0 0 
38 2 1 -24.7061 -33.5064 -129.814 0 0 0 
43 1 1 -22.998 -31.8 -123.311 0 0 0 
48 3 1 -25.9781 -39.1663 -119.929 0 0 0 
44 2 1 -25.5993 -34.0678 -123.211 0 0 0 
45 3 1 -28.7787 -35.3745 -123.305 0 0 0 
40 1 1 -22.0107 -30.554 -126.977 0 0 0 
41 2 1 -21.0221 -27.4828 -124.515 0 0 0 
47 2 1 -25.33 -35.9348 -118.143 0 0 0 
46 1 1 -23.4775 -32.5743 -119.456 0 0 0 
49 1 1 -22.836 -31.4036 -115.815 0 0 0 
50 2 1 -20.3768 -28.4094 -114.741 0 0 0 
52 1 1 -23.0573 -31.208 -112.018 0 0 0 
54 3 1 -28.3696 -35.5612 -109.156 0 0 0 
53 2 1 -25.3555 -33.7728 -110.667 0 0 0 
51 3 1 -17.7657 -26.1666 -114.144 0 0 0 
59 2 1 -21.9935 -33.7535 -103.045 0 0 0 
55 1 1 -22.9155 -30.2156 -108.361 0 0 0 
58 1 1 -23.2229 -30.2898 -104.63 0 0 0 
61 1 1 -23.7203 -29.765 -100.778 0 0 0 
56 2 1 -22.7384 -26.2822 -107.078 0 0 0 
57 3 1 -20.3936 -24.8364 -104.388 0 0 0 
66 3 1 -18.7215 -35.857 -95.9854 0 0 0 
60 3 1 -20.5555 -37.3776 -102.791 0 0 0 
65 2 1 -20.7549 -32.8844 -95.8889 0 0 0 
62 2 1 -26.7148 -28.4016 -98.9393 0 0 0 
68 2 1 -21.1933 -25.1552 -92.1288 0 0 0 
64 1 1 -22.4189 -29.8 -97.0996 0 0 0 
67 1 1 -21.2518 -28.8292 -93.6089 0 0 0 
63 3 1 -28.9749 -25.4737 -98.8751 0 0 0 
81 3 1 -13.5133 -41.9338 -80.3722 0 0 0 
80 2 1 -15.782 -39.2592 -81.1842 0 0 0 
74 2 1 -16.8779 -35.3235 -86.7082 0 0 0 
73 1 1 -18.9597 -31.9832 -87.0664 0 0 0 
76 1 1 -18.3548 -33.217 -83.5132 0 0 0 
79 1 1 -17.6231 -35.6396 -80.5447 0 0 0 
75 3 1 -17.4288 -39.1546 -86.2706 0 0 0 
70 1 1 -19.9823 -30.0472 -90.2683 0 0 0 
69 3 1 -23.5064 -22.1944 -91.4507 0 0 0 
71 2 1 -19.272 -27.1776 -87.5363 0 0 0 
72 3 1 -17.1115 -24.4268 -86.7767 0 0 0 
90 3 1 -15.0645 -51.1455 -72.0106 0 0 0 
89 2 1 -14.504 -47.5983 -72.2342 0 0 0 
88 1 1 -15.6432 -43.6116 -72.0106 0 0 0 
86 2 1 -15.5633 -44.7673 -76.2756 0 0 0 
87 3 1 -13.3166 -46.5959 -78.319 0 0 0 
77 2 1 -18.6752 -31.2749 -80.0336 0 0 0 
82 1 1 -17.351 -37.8485 -77.1918 0 0 0 
85 1 1 -16.4734 -41.1495 -74.943 0 0 0 
83 2 1 -17.6688 -36.5034 -73.4424 0 0 0 
84 3 1 -16.1405 -35.8618 -70.2896 0 0 0 
78 3 1 -19.8814 -31.2089 -76.4053 0 0 0 
96 3 1 -20.9903 -39.5311 -62.4768 0 0 0 
91 1 1 -15.2755 -44.4058 -68.3005 0 0 0 
92 2 1 -12.6177 -46.3558 -65.9416 0 0 0 
93 3 1 -10.7394 -49.6489 -65.0636 0 0 0 
97 1 1 -13.8877 -42.4202 -61.2029 0 0 0 
95 2 1 -18.1942 -41.6457 -62.8666 0 0 0 
94 1 1 -15.598 -43.298 -64.5451 0 0 0 
102 3 1 -17.897 -35.741 -57.2733 0 0 0 
104 2 1 -13.754 -36.3186 -53.1133 0 0 0 
100 1 1 -13.2053 -40.9273 -57.7699 0 0 0 
103 1 1 -13.0069 -40.0428 -53.9891 0 0 0 
101 2 1 -14.3257 -37.1288 -57.2103 0 0 0 
98 2 1 -10.8809 -45.0702 -60.391 0 0 0 
99 3 1 -9.38872 -48.2394 -59.1812 0 0 0 
106 1 1 -12.9757 -39.8407 -50.0943 0 0 0 
105 3 1 -13.407 -32.9387 -52.6952 0 0 0 
114 3 1 -20.8843 -41.6472 -40.5896 0 0 0 
115 1 1 -15.4608 -36.0212 -39.6659 0 0 0 
109 1 1 -13.8297 -38.8148 -46.3687 0 0 0 
112 1 1 -15.5958 -37.8011 -43.0898 0 0 0 
113 2 1 -18.6721 -38.7343 -41.8416 0 0 0 
107 2 1 -10.841 -42.2756 -48.1533 0 0 0 
108 3 1 -8.15144 -42.293 -45.3988 0 0 0 
111 3 1 -7.80275 -37.1712 -41.9513 0 0 0 
110 2 1 -10.9506 -38.7225 -43.446 0 0 0 
120 3 1 -17.7725 -38.0898 -29.5265 0 0 0 
119 2 1 -17.2455 -36.1507 -32.565 0 0 0 
116 2 1 -13.1007 -32.7674 -39.2873 0 0 0 
118 1 1 -15.8494 -34.4758 -36.0257 0 0 0 
117 3 1 -12.2774 -29.0146 -39.2428 0 0 0 
123 3 1 -11.8023 -24.7281 -35.6678 0 0 0 
126 3 1 -8.81764 -25.254 -30.1846 0 0 0 
125 2 1 -12.4846 -25.9555 -30.9826 0 0 0 
122 2 1 -13.1468 -28.116 -34.6216 0 0 0 
121 1 1 -15.4822 -31.3133 -33.815 0 0 0 
124 1 1 -15.477 -28.6339 -31.0759 0 0 0 
132 3 1 -21.994 -29.8359 -20.9846 0 0 0 
129 3 1 -11.2043 -21.5559 -25.3941 0 0 0 
131 2 1 -20.5001 -26.6549 -22.2972 0 0 0 
128 2 1 -13.1008 -24.4203 -26.8731 0 0 0 
127 1 1 -16.3984 -26.5273 -28.0975 0 0 0 
130 1 1 -18.0118 -24.9367 -25.064 0 0 0 
133 1 1 -19.1993 -22.1429 -22.5011 0 0 0 
135 3 1 -24.1379 -24.4184 -18.1779 0 0 0 
134 2 1 -20.4515 -23.7288 -18.9266 0 0 0 
138 3 1 -27.5401 -16.6731 -19.0028 0 0 0 
139 1 1 -20.1855 -15.107 -19.5751 0 0 0 
137 2 1 -23.8596 -17.4528 -19.5784 0 0 0 
136 1 1 -20.1983 -18.7041 -20.9229 0 0 0 
140 2 1 -22.6911 -12.2792 -18.269 0 0 0 
141 3 1 -25.6172 -11.3087 -16.8919 0 0 0 
142 1 1 -18.159 -11.9599 -18.5967 0 0 0 
143 2 1 -18.896 -9.72225 -15.2675 0 0 0 
145 1 1 -15.3928 -9.46971 -17.8701 0 0 0 
144 3 1 -21.4136 -8.45101 -13.4142 0 0 0 
148 1 1 -12.5513 -7.0752 -16.4427 0 0 0 
146 2 1 -12.8171 -8.7516 -20.6424 0 0 0 
147 3 1 -11.9215 -6.64834 -23.4433 0 0 0 
149 2 1 -11.0904 -8.45116 -12.8093 0 0 0 
150 3 1 -9.34596 -7.05797 -10.0658 0 0 0 
151 1 1 -9.77174 -4.47611 -15.6495 0 0 0 
154 1 1 -8.29823 -1.93064 -13.1877 0 0 0 
155 2 1 -4.24332 -1.36151 -13.1955 0 0 0 
156 3 1 -3.26451 -4.6358 -12.8232 0 0 0 
162 3 1 -8.79518 9.70994 -11.345 0 0 0 
157 1 1 -7.77773 0.323836 -10.1257 0 0 0 
152 2 1 -6.59382 -2.57632 -17.3674 0 0 0 
153 3 1 -5.28258 -0.942423 -20.1681 0 0 0 
158 2 1 -6.44408 -0.74202 -6.50819 0 0 0 
159 3 1 -6.82464 -1.89117 -2.84484 0 0 0 
160 1 1 -7.74036 3.67584 -8.19193 0 0 0 
161 2 1 -9.97237 6.8761 -9.14497 0 0 0 
165 3 1 -8.52917 13.0476 -5.83569 0 0 0 
163 1 1 -6.72398 6.36434 -5.82753 0 0 0 
166 1 1 -6.08498 7.04814 -2.0009 0 0 0 
164 2 1 -5.95548 10.3476 -5.91155 0 0 0 
167 2 1 -3.98121 5.72276 1.26067 0 0 0 
169 1 1 -6.87526 8.62477 1.35997 0 0 0 
172 1 1 -6.51168 8.69743 5.22376 0 0 0 
168 3 1 -1.20473 4.68152 3.19002 0 0 0 
175 1 1 -5.58958 9.55029 8.86942 0 0 0 
174 3 1 -4.90992 1.93448 8.03886 0 0 0 
173 2 1 -6.25418 5.06051 7.06264 0 0 0 
170 2 1 -8.97578 11.8205 2.31489 0 0 0 
171 3 1 -8.38162 15.1647 3.0421 0 0 0 
177 3 1 -1.52004 4.50686 12.8061 0 0 0 
176 2 1 -2.57119 7.72574 10.848 0 0 0 
183 3 1 -1.12396 5.05375 18.2276 0 0 0 
180 3 1 -10.9109 16.4327 14.6871 0 0 0 
179 2 1 -8.56086 13.663 13.2649 0 0 0 
184 1 1 -3.01935 12.2458 19.6248 0 0 0 
185 2 1 -4.72006 15.1421 21.8663 0 0 0 
178 1 1 -5.5243 11.0556 12.5034 0 0 0 
181 1 1 -4.14868 11.4992 16.0776 0 0 0 
182 2 1 -1.76969 8.43529 17.3296 0 0 0 
187 1 1 -0.740123 12.3722 22.8401 0 0 0 
186 3 1 -6.04016 18.5609 23.1565 0 0 0 
191 2 1 4.68484 16.2114 25.9161 0 0 0 
190 1 1 1.83093 13.147 25.6658 0 0 0 
193 1 1 3.86607 12.8624 28.9817 0 0 0 
188 2 1 -0.837804 9.03086 25.446 0 0 0 
189 3 1 -1.37015 5.80214 26.4365 0 0 0 
194 2 1 4.20386 9.28638 30.9341 0 0 0 
192 3 1 5.0578 19.9267 26.5563 0 0 0 
195 3 1 4.02728 5.48057 30.9837 0 0 0 
196 1 1 5.61663 14.1615 32.1149 0 0 0 
201 3 1 8.98204 14.6406 41.4848 0 0 0 
198 3 1 8.42749 9.70061 36.7346 0 0 0 
197 2 1 7.63171 12.1084 34.2496 0 0 0 
200 2 1 7.09547 15.6073 38.4912 0 0 0 
199 1 1 5.94941 16.9304 34.8705 0 0 0 
202 1 1 6.32957 20.042 37.0059 0 0 0 
203 2 1 6.20885 23.3041 35.4836 0 0 0 
204 3 1 6.20712 26.0803 33.2525 0 0 0 
205 1 1 6.79136 22.4976 40.0446 0 0 0 
206 2 1 8.10356 21.0882 43.6074 0 0 0 
207 3 1 7.03929 19.2496 46.5287 0 0 0 
208 1 1 6.51917 25.7012 42.2599 0 0 0 
211 1 1 6.50535 27.8685 45.4222 0 0 0 
212 2 1 7.78016 26.2483 49.0442 0 0 0 
210 3 1 3.42041 32.2287 40.9528 0 0 0 
209 2 1 5.23377 29.3157 40.9034 0 0 0 
219 3 1 6.89864 39.403 48.3719 0 0 0 
213 3 1 7.42334 23.7436 51.8942 0 0 0 
215 2 1 4.04491 30.3566 51.1693 0 0 0 
216 3 1 1.4282 31.9175 52.8845 0 0 0 
214 1 1 6.97527 30.4832 48.4134 0 0 0 
221 2 1 9.21743 32.5463 57.6191 0 0 0 
217 1 1 7.92626 32.9267 51.1545 0 0 0 
220 1 1 8.67567 34.9426 54.3035 0 0 0 
218 2 1 8.92239 36.6837 50.0028 0 0 0 
223 1 1 9.04331 37.6407 57.1462 0 0 0 
224 2 1 6.85115 41.1148 57.4679 0 0 0 
225 3 1 3.22584 41.4145 58.0253 0 0 0 
228 3 1 6.04156 45.9149 59.9012 0 0 0 
222 3 1 8.47024 31.7037 61.0543 0 0 0 
226 1 1 10.3772 39.525 60.2618 0 0 0 
230 2 1 13.8395 38.2689 66.3528 0 0 0 
231 3 1 13.0854 34.9042 67.8357 0 0 0 
229 1 1 12.1649 40.8107 63.5759 0 0 0 
232 1 1 13.8477 42.9409 66.4255 0 0 0 
237 3 1 18.2594 36.8575 73.7491 0 0 0 
227 2 1 8.83924 43.2418 60.3914 0 0 0 
233 2 1 13.672 46.7386 67.9631 0 0 0 
234 3 1 14.861 49.778 69.5179 0 0 0 
235 1 1 15.7865 42.6926 69.6873 0 0 0 
236 2 1 17.7986 39.6937 71.444 0 0 0 
238 1 1 17.4284 43.8877 72.9085 0 0 0 
244 1 1 22.1649 43.9388 79.1028 0 0 0 
247 1 1 24.514 43.633 82.3014 0 0 0 
241 1 1 19.9226 43.6569 75.815 0 0 0 
239 2 1 17.1905 47.5595 74.0305 0 0 0 
240 3 1 15.5467 50.7534 74.2638 0 0 0 
245 2 1 23.557 47.6975 79.6568 0 0 0 
246 3 1 26.6755 49.6101 79.4442 0 0 0 
248 2 1 25.9693 47.1392 83.9481 0 0 0 
249 3 1 28.0179 49.7901 85.2363 0 0 0 
258 3 1 26.2822 36.468 95.5079 0 0 0 
242 2 1 22.1102 40.3733 76.3542 0 0 0 
243 3 1 23.8159 37.1115 75.3651 0 0 0 
250 1 1 26.9297 42.4136 85.0885 0 0 0 
254 2 1 32.9726 39.1203 86.2815 0 0 0 
253 1 1 29.3891 40.6923 87.471 0 0 0 
256 1 1 31.1885 39.359 90.503 0 0 0 
257 2 1 28.775 38.1072 93.524 0 0 0 
260 2 1 31.5203 34.8917 94.8069 0 0 0 
261 3 1 29.9032 31.7685 94.1163 0 0 0 
252 3 1 27.3633 46.6199 91.1503 0 0 0 
251 2 1 26.4561 44.4134 88.5958 0 0 0 
255 3 1 36.2517 38.7752 85.0361 0 0 0 
259 1 1 33.6414 37.7696 92.9514 0 0 0 
262 1 1 35.9697 36.8552 95.931 0 0 0 
265 1 1 38.0133 36.6484 99.1255 0 0 0 
263 2 1 37.3953 33.1138 95.8187 0 0 0 
266 2 1 41.4147 35.4296 99.6548 0 0 0 
264 3 1 40.0163 30.4543 96.0469 0 0 0 
270 3 1 42.1184 32.6911 107.641 0 0 0 
271 1 1 38.7718 39.1207 106.554 0 0 0 
268 1 1 38.5706 37.5848 102.961 0 0 0 
267 3 1 44.1928 38.0284 99.7901 0 0 0 
274 1 1 38.798 40.2678 110.148 0 0 0 
272 2 1 37.3004 42.9496 106.541 0 0 0 
273 3 1 35.4107 45.8744 107.174 0 0 0 
269 2 1 39.7382 34.792 105.575 0 0 0 
275 2 1 42.5345 41.1298 111.626 0 0 0 
281 2 1 40.7517 43.2591 119.615 0 0 0 
282 3 1 43.7549 44.2286 121.06 0 0 0 
276 3 1 45.1841 41.0151 113.98 0 0 0 
277 1 1 37.9006 41.8776 113.534 0 0 0 
280 1 1 37.5371 42.9608 117.168 0 0 0 
283 1 1 36.2885 43.9721 120.85 0 0 0 
279 3 1 32.9186 47.4659 113.846 0 0 0 
278 2 1 34.8614 44.5743 113.275 0 0 0 
284 2 1 32.9301 45.7473 122.013 0 0 0 
285 3 1 29.799 47.7668 121.757 0 0 0 
291 3 1 41.9014 46.2003 132.906 0 0 0 
290 2 1 40.8629 43.8773 129.901 0 0 0 
286 1 1 36.0047 44.4723 124.664 0 0 0 
289 1 1 37.1357 44.3297 128.278 0 0 0 
292 1 1 36.7851 43.9124 132.165 0 0 0 
288 3 1 29.3029 44.7096 127.889 0 0 0 
287 2 1 32.6564 45.557 126.645 0 0 0 
299 2 1 35.4686 43.8255 142.828 0 0 0 
293 2 1 33.5456 45.1431 134.277 0 0 0 
296 2 1 40.2913 40.8552 136.934 0 0 0 
295 1 1 37.4584 42.5254 135.704 0 0 0 
298 1 1 36.8165 41.8174 139.566 0 0 0 
301 1 1 37.4057 39.0681 142.15 0 0 0 
297 3 1 43.2986 40.8582 139.142 0 0 0 
294 3 1 30.512 46.6787 134.376 0 0 0 
300 3 1 33.2301 43.5374 146.064 0 0 0 
306 3 1 42.0745 31.851 145.947 0 0 0 
309 3 1 29.19 34.2403 152.207 0 0 0 
305 2 1 40.4051 34.9251 147.202 0 0 0 
302 2 1 39.7691 36.552 141.622 0 0 0 
304 1 1 37.3575 37.2563 145.621 0 0 0 
307 1 1 36.0224 36.0756 149.04 0 0 0 
308 2 1 32.6351 34.9034 150.903 0 0 0 
310 1 1 36.475 35.0476 152.69 0 0 0 
303 3 1 42.8039 34.6897 140.543 0 0 0 
315 3 1 29.4911 31.3497 158.319 0 0 0 
312 3 1 40.9915 29.8205 154.459 0 0 0 
316 1 1 37.592 30.8758 159.169 0 0 0 
311 2 1 39.3667 33.0745 153.538 0 0 0 
317 2 1 41.5893 31.3311 159.412 0 0 0 
314 2 1 33.0216 32.8427 158.459 0 0 0 
313 1 1 36.4235 33.2327 156.224 0 0 0 
323 2 1 36.6894 25.4614 168.398 0 0 0 
324 3 1 33.8929 23.6087 169.701 0 0 0 
321 3 1 32.2477 24.6124 164.076 0 0 0 
319 1 1 37.6733 29.4417 162.817 0 0 0 
322 1 1 38.4502 28.5886 166.481 0 0 0 
320 2 1 35.3635 27.0135 164.186 0 0 0 
318 3 1 45.0283 32.6629 158.348 0 0 0 
ITEM: TIMESTEP
200000
ITEM: NUMBER OF ATOMS
324
ITEM: BOX BOUNDS pp pp pp
-214.299 214.299
-214.299 214.299
-214.299 214.299
ITEM: ATOMS id type mol x y z ix iy iz 
39 3 1 -44.857 -74.0921 -123.519 0 0 0 
42 3 1 -49.3206 -74.4597 -120.207 0 0 0 
36 3 1 -36.1134 -76.7012 -122.352 0 0 0 
38 2 1 -42.1981 -72.9122 -121.292 0 0 0 
35 2 1 -36.5816 -74.4724 -119.171 0 0 0 
33 3 1 -29.893 -76.2195 -114.537 0 0 0 
45 3 1 -52.7951 -64.7735 -115.537 0 0 0 
44 2 1 -50.0997 -67.1684 -115.233 0 0 0 
46 1 1 -45.834 -65.1805 -113.265 0 0 0 
41 2 1 -46.9926 -71.407 -119.683 0 0 0 
43 1 1 -46.1413 -68.0112 -115.942 0 0 0 
40 1 1 -43.8604 -70.4964 -117.867 0 0 0 
37 1 1 -40.085 -71.7712 -118.009 0 0 0 
27 3 1 -40.9077 -67.4133 -112.27 0 0 0 
34 1 1 -36.5015 -71.6965 -116.469 0 0 0 
31 1 1 -34.2924 -69.9743 -113.657 0 0 0 
32 2 1 -31.4568 -72.7392 -114.879 0 0 0 
47 2 1 -47.3383 -61.5167 -113.153 0 0 0 
48 3 1 -48.7448 -58.3337 -114.216 0 0 0 
49 1 1 -44.3862 -63.4853 -110.206 0 0 0 
52 1 1 -42.0691 -63.3582 -107.048 0 0 0 
29 2 1 -31.1041 -68.4606 -111.954 0 0 0 
53 2 1 -38.9201 -65.7961 -106.029 0 0 0 
26 2 1 -38.1318 -65.078 -111.046 0 0 0 
25 1 1 -34.9248 -64.1185 -108.862 0 0 0 
28 1 1 -34.3332 -67.2242 -111.023 0 0 0 
54 3 1 -37.4095 -68.8979 -106.429 0 0 0 
56 2 1 -36.6005 -64.0648 -103.128 0 0 0 
55 1 1 -40.1759 -62.4525 -103.903 0 0 0 
30 3 1 -27.7806 -69.6671 -112.508 0 0 0 
50 2 1 -45.3835 -60.0539 -108.209 0 0 0 
51 3 1 -47.1464 -56.6862 -108.812 0 0 0 
23 2 1 -37.585 -60.0877 -108.699 0 0 0 
24 3 1 -40.8855 -58.6947 -110.231 0 0 0 
22 1 1 -34.892 -61.2689 -106.239 0 0 0 
57 3 1 -33.7076 -66.7467 -103.134 0 0 0 
60 3 1 -31.9105 -63.6325 -98.6318 0 0 0 
59 2 1 -35.566 -62.7026 -99.3561 0 0 0 
58 1 1 -38.9493 -61.0898 -100.554 0 0 0 
63 3 1 -32.4327 -61.932 -93.9191 0 0 0 
18 3 1 -28.2802 -62.9735 -101.223 0 0 0 
21 3 1 -41.417 -57.6676 -103.816 0 0 0 
65 2 1 -40.7102 -53.652 -92.8274 0 0 0 
66 3 1 -43.6581 -51.9784 -91.9985 0 0 0 
20 2 1 -38.125 -58.4307 -104.178 0 0 0 
19 1 1 -34.2577 -58.9658 -103.054 0 0 0 
16 1 1 -32.997 -57.5276 -99.7798 0 0 0 
62 2 1 -35.0667 -59.81 -95.1932 0 0 0 
61 1 1 -38.4718 -59.0979 -97.2458 0 0 0 
17 2 1 -30.0373 -59.5311 -101.905 0 0 0 
13 1 1 -33.1234 -55.9244 -96.2221 0 0 0 
11 2 1 -36.6141 -52.8084 -95.6014 0 0 0 
64 1 1 -38.5734 -56.8287 -94.0091 0 0 0 
15 3 1 -27.183 -60.7281 -96.9244 0 0 0 
14 2 1 -29.8877 -58.4078 -96.1273 0 0 0 
12 3 1 -39.5943 -50.8586 -97.0856 0 0 0 
72 3 1 -32.7538 -60.641 -84.0872 0 0 0 
10 1 1 -33.8856 -54.0666 -92.8733 0 0 0 
68 2 1 -38.4419 -51.4102 -89.7008 0 0 0 
67 1 1 -37.676 -55.4706 -90.4667 0 0 0 
70 1 1 -37.06 -55.4574 -86.7917 0 0 0 
8 2 1 -32.8005 -56.3305 -88.4643 0 0 0 
7 1 1 -34.0031 -52.5221 -89.2245 0 0 0 
4 1 1 -34.1026 -50.0473 -86.2201 0 0 0 
5 2 1 -32.2231 -53.1636 -84.2819 0 0 0 
71 2 1 -35.3362 -57.8251 -84.4806 0 0 0 
73 1 1 -37.0336 -53.4882 -83.4495 0 0 0 
9 3 1 -30.0613 -58.2865 -87.903 0 0 0 
69 3 1 -37.9029 -47.7795 -89.9305 0 0 0 
1 1 1 -34.5535 -46.5937 -84.681 0 0 0 
75 3 1 -33.1517 -58.6147 -79.093 0 0 0 
74 2 1 -35.6368 -55.9894 -80.6472 0 0 0 
78 3 1 -34.1141 -50.7332 -74.9818 0 0 0 
77 2 1 -36.3631 -52.5843 -76.9355 0 0 0 
76 1 1 -37.2151 -51.1933 -80.5844 0 0 0 
6 3 1 -29.2307 -54.5839 -82.271 0 0 0 
2 2 1 -33.9383 -48.2963 -81.5578 0 0 0 
80 2 1 -38.6441 -44.4719 -79.5089 0 0 0 
79 1 1 -37.743 -48.2513 -78.1001 0 0 0 
82 1 1 -37.4828 -45.8677 -74.9812 0 0 0 
81 3 1 -37.0672 -41.8341 -81.4861 0 0 0 
86 2 1 -40.093 -40.1409 -71.7008 0 0 0 
87 3 1 -41.2312 -36.4609 -72.4026 0 0 0 
3 3 1 -31.847 -50.341 -79.5826 0 0 0 
83 2 1 -36.1937 -47.5799 -71.5631 0 0 0 
84 3 1 -36.742 -48.7758 -68.3944 0 0 0 
85 1 1 -37.5637 -43.1647 -72.3958 0 0 0 
88 1 1 -36.4921 -41.557 -69.1291 0 0 0 
92 2 1 -30.7083 -40.3723 -66.1894 0 0 0 
91 1 1 -34.5184 -39.9813 -66.2437 0 0 0 