ITEM: TIMESTEP
0
ITEM: NUMBER OF ATOMS
330
ITEM: BOX BOUNDS pp pp pp
-215.614 215.614
-215.614 215.614
-215.614 215.614
ITEM: ATOMS id type mol x y z ix iy iz 
2 2 1 -35.3546 -39.6521 -190.399 0 0 0 
3 3 1 -38.8006 -40.3581 -189.156 0 0 0 
1 1 1 -31.965 -39.5937 -192.27 0 0 0 
4 1 1 -31.3795 -38.8585 -188.752 0 0 0 
5 2 1 -27.852 -39.7977 -189.649 0 0 0 
6 3 1 -24.2648 -40.7685 -188.824 0 0 0 
9 3 1 -37.6296 -38.8877 -182.12 0 0 0 
7 1 1 -30.794 -38.1233 -185.233 0 0 0 
8 2 1 -34.1835 -38.1818 -183.362 0 0 0 
10 1 1 -30.2084 -37.3882 -181.715 0 0 0 
11 2 1 -26.681 -38.3274 -182.613 0 0 0 
13 1 1 -29.6229 -36.653 -178.196 0 0 0 
14 2 1 -33.0124 -36.7115 -176.325 0 0 0 
17 2 1 -25.5099 -36.857 -175.576 0 0 0 
12 3 1 -23.0938 -39.2982 -181.787 0 0 0 
15 3 1 -36.4585 -37.4174 -175.083 0 0 0 
21 3 1 -35.2874 -35.9471 -168.046 0 0 0 
16 1 1 -29.0374 -35.9178 -174.678 0 0 0 
19 1 1 -28.4519 -35.1827 -171.16 0 0 0 
20 2 1 -31.8414 -35.2412 -169.288 0 0 0 
18 3 1 -21.9227 -37.8279 -174.75 0 0 0 
23 2 1 -24.3389 -35.3867 -168.539 0 0 0 
24 3 1 -20.7516 -36.3576 -167.714 0 0 0 
22 1 1 -27.8663 -34.4475 -167.641 0 0 0 
25 1 1 -27.2808 -33.7124 -164.123 0 0 0 
26 2 1 -30.6703 -33.7708 -162.251 0 0 0 
27 3 1 -34.1164 -34.4768 -161.009 0 0 0 
28 1 1 -26.6953 -32.9772 -160.604 0 0 0 
31 1 1 -26.1097 -32.242 -157.086 0 0 0 
29 2 1 -23.1678 -33.9164 -161.502 0 0 0 
30 3 1 -19.5806 -34.8872 -160.677 0 0 0 
32 2 1 -29.4992 -32.3005 -155.215 0 0 0 
33 3 1 -32.9453 -33.0064 -153.972 0 0 0 
34 1 1 -25.5242 -31.5069 -153.568 0 0 0 
38 2 1 -28.3282 -30.8302 -148.178 0 0 0 
39 3 1 -31.7742 -31.5361 -146.936 0 0 0 
35 2 1 -21.9967 -32.446 -154.465 0 0 0 
36 3 1 -18.4095 -33.4169 -153.64 0 0 0 
37 1 1 -24.9387 -30.7717 -150.049 0 0 0 
40 1 1 -24.3531 -30.0365 -146.531 0 0 0 
41 2 1 -20.8257 -30.9757 -147.429 0 0 0 
42 3 1 -17.2385 -31.9466 -146.603 0 0 0 
44 2 1 -27.1571 -29.3599 -141.141 0 0 0 
45 3 1 -30.6032 -30.0658 -139.899 0 0 0 
43 1 1 -23.7676 -29.3014 -143.012 0 0 0 
46 1 1 -23.1821 -28.5662 -139.494 0 0 0 
47 2 1 -19.6546 -29.5054 -140.392 0 0 0 
48 3 1 -16.0674 -30.4763 -139.566 0 0 0 
49 1 1 -22.5965 -27.831 -135.976 0 0 0 
50 2 1 -25.9861 -27.8895 -134.104 0 0 0 
51 3 1 -29.4321 -28.5954 -132.862 0 0 0 
57 3 1 -28.2611 -27.1251 -125.825 0 0 0 
52 1 1 -22.011 -27.0959 -132.457 0 0 0 
53 2 1 -18.4836 -28.0351 -133.355 0 0 0 
55 1 1 -21.4255 -26.3607 -128.939 0 0 0 
56 2 1 -24.815 -26.4192 -127.067 0 0 0 
58 1 1 -20.84 -25.6256 -125.42 0 0 0 
59 2 1 -17.3125 -26.5647 -126.318 0 0 0 
54 3 1 -14.8963 -29.0059 -132.53 0 0 0 
60 3 1 -13.7253 -27.5356 -125.493 0 0 0 
63 3 1 -27.09 -25.6548 -118.788 0 0 0 
65 2 1 -16.1414 -25.0944 -119.281 0 0 0 
66 3 1 -12.5542 -26.0653 -118.456 0 0 0 
61 1 1 -20.2544 -24.8904 -121.902 0 0 0 
62 2 1 -23.6439 -24.9489 -120.031 0 0 0 
64 1 1 -19.6689 -24.1552 -118.384 0 0 0 
69 3 1 -25.9189 -24.1845 -111.752 0 0 0 
67 1 1 -19.0834 -23.4201 -114.865 0 0 0 
68 2 1 -22.4729 -23.4785 -112.994 0 0 0 
70 1 1 -18.4978 -22.6849 -111.347 0 0 0 
73 1 1 -17.9123 -21.9497 -107.828 0 0 0 
74 2 1 -21.3018 -22.0082 -105.957 0 0 0 
71 2 1 -14.9704 -23.6241 -112.245 0 0 0 
72 3 1 -11.3831 -24.595 -111.419 0 0 0 
75 3 1 -24.7479 -22.7141 -104.715 0 0 0 
76 1 1 -17.3268 -21.2146 -104.31 0 0 0 
79 1 1 -16.7412 -20.4794 -100.792 0 0 0 
80 2 1 -20.1307 -20.5379 -98.9203 0 0 0 
81 3 1 -23.5768 -21.2438 -97.6781 0 0 0 
82 1 1 -16.1557 -19.7443 -97.2732 0 0 0 
77 2 1 -13.7993 -22.1538 -105.208 0 0 0 
78 3 1 -10.2121 -23.1246 -104.382 0 0 0 
83 2 1 -12.6282 -20.6834 -98.1709 0 0 0 
84 3 1 -9.04103 -21.6543 -97.3458 0 0 0 
85 1 1 -15.5702 -19.0091 -93.7548 0 0 0 
86 2 1 -18.9597 -19.0676 -91.8835 0 0 0 
87 3 1 -22.4058 -19.7735 -90.6412 0 0 0 
88 1 1 -14.9846 -18.2739 -90.2364 0 0 0 
89 2 1 -11.4572 -19.2131 -91.1341 0 0 0 
90 3 1 -7.86996 -20.184 -90.309 0 0 0 
91 1 1 -14.3991 -17.5388 -86.718 0 0 0 
92 2 1 -17.7886 -17.5972 -84.8467 0 0 0 
93 3 1 -21.2347 -18.3032 -83.6044 0 0 0 
98 2 1 -16.6176 -16.1269 -77.8099 0 0 0 
99 3 1 -20.0636 -16.8328 -76.5677 0 0 0 
94 1 1 -13.8136 -16.8036 -83.1996 0 0 0 
95 2 1 -10.2861 -17.7428 -84.0973 0 0 0 
96 3 1 -6.6989 -18.7136 -83.2722 0 0 0 
97 1 1 -13.228 -16.0684 -79.6812 0 0 0 
100 1 1 -12.6425 -15.3333 -76.1628 0 0 0 
101 2 1 -9.11506 -16.2724 -77.0605 0 0 0 
102 3 1 -5.52784 -17.2433 -76.2353 0 0 0 
105 3 1 -18.8926 -15.3625 -69.5309 0 0 0 
108 3 1 -4.35678 -15.773 -69.1985 0 0 0 
104 2 1 -15.4465 -14.6566 -70.7731 0 0 0 
103 1 1 -12.057 -14.5981 -72.6444 0 0 0 
106 1 1 -11.4715 -13.8629 -69.126 0 0 0 
107 2 1 -7.944 -14.8021 -70.0237 0 0 0 
109 1 1 -10.8859 -13.1278 -65.6076 0 0 0 
111 3 1 -17.7215 -13.8922 -62.4941 0 0 0 
117 3 1 -16.5505 -12.4218 -55.4573 0 0 0 
110 2 1 -14.2754 -13.1863 -63.7363 0 0 0 
112 1 1 -10.3004 -12.3926 -62.0892 0 0 0 
113 2 1 -6.77294 -13.3318 -62.9869 0 0 0 
115 1 1 -9.71487 -11.6575 -58.5708 0 0 0 
116 2 1 -13.1044 -11.7159 -56.6995 0 0 0 
119 2 1 -5.60187 -11.8615 -55.9501 0 0 0 
114 3 1 -3.18572 -14.3027 -62.1617 0 0 0 
123 3 1 -15.3794 -10.9515 -48.4205 0 0 0 
118 1 1 -9.12934 -10.9223 -55.0524 0 0 0 
121 1 1 -8.54381 -10.1871 -51.534 0 0 0 
122 2 1 -11.9333 -10.2456 -49.6627 0 0 0 
124 1 1 -7.95828 -9.45196 -48.0156 0 0 0 
120 3 1 -2.01466 -12.8323 -55.1249 0 0 0 
125 2 1 -4.43081 -10.3911 -48.9133 0 0 0 
126 3 1 -0.843596 -11.362 -48.0881 0 0 0 
127 1 1 -7.37275 -8.7168 -44.4972 0 0 0 
128 2 1 -10.7623 -8.77528 -42.6259 0 0 0 
129 3 1 -14.2083 -9.4812 -41.3836 0 0 0 
130 1 1 -6.78722 -7.98163 -40.9788 0 0 0 
133 1 1 -6.20169 -7.24647 -37.4604 0 0 0 
134 2 1 -9.59121 -7.30495 -35.5891 0 0 0 
131 2 1 -3.25975 -8.92082 -41.8765 0 0 0 
132 3 1 0.327464 -9.89168 -41.0513 0 0 0 
135 3 1 -13.0373 -8.01088 -34.3468 0 0 0 
136 1 1 -5.61616 -6.51131 -33.942 0 0 0 
139 1 1 -5.03063 -5.77614 -30.4236 0 0 0 
140 2 1 -8.42014 -5.83463 -28.5523 0 0 0 
141 3 1 -11.8662 -6.54055 -27.31 0 0 0 
137 2 1 -2.08869 -7.45049 -34.8397 0 0 0 
138 3 1 1.49853 -8.42135 -34.0145 0 0 0 
142 1 1 -4.4451 -5.04098 -26.9052 0 0 0 
143 2 1 -0.91763 -5.98017 -27.8029 0 0 0 
144 3 1 2.66959 -6.95103 -26.9778 0 0 0 
147 3 1 -10.6951 -5.07022 -20.2732 0 0 0 
150 3 1 3.84065 -5.4807 -19.9409 0 0 0 
146 2 1 -7.24908 -4.3643 -21.5155 0 0 0 
145 1 1 -3.85956 -4.30582 -23.3868 0 0 0 
148 1 1 -3.27403 -3.57065 -19.8684 0 0 0 
149 2 1 0.253431 -4.50984 -20.7661 0 0 0 
151 1 1 -2.6885 -2.83549 -16.35 0 0 0 
152 2 1 -6.07802 -2.89397 -14.4787 0 0 0 
153 3 1 -9.52409 -3.5999 -13.2364 0 0 0 
159 3 1 -8.35303 -2.12957 -6.19964 0 0 0 
154 1 1 -2.10297 -2.10033 -12.8316 0 0 0 
155 2 1 1.42449 -3.03951 -13.7293 0 0 0 
156 3 1 5.01171 -4.01037 -12.9041 0 0 0 
157 1 1 -1.51744 -1.36516 -9.31319 0 0 0 
158 2 1 -4.90696 -1.42365 -7.44193 0 0 0 
160 1 1 -0.931911 -0.629998 -5.79479 0 0 0 
161 2 1 2.59555 -1.56918 -6.69249 0 0 0 
162 3 1 6.18277 -2.54004 -5.86735 0 0 0 
165 3 1 -7.18197 -0.659241 0.837158 0 0 0 
163 1 1 -0.34638 0.105164 -2.27638 0 0 0 
164 2 1 -3.7359 0.046681 -0.405124 0 0 0 
166 1 1 0.23915 0.840328 1.24202 0 0 0 
167 2 1 3.76661 -0.098857 0.344313 0 0 0 
169 1 1 0.82468 1.57549 4.76042 0 0 0 
168 3 1 7.35383 -1.06972 1.16945 0 0 0 
171 3 1 -6.01091 0.811085 7.87396 0 0 0 
170 2 1 -2.56484 1.51701 6.63168 0 0 0 
172 1 1 1.41021 2.31066 8.27882 0 0 0 
173 2 1 4.93768 1.37147 7.38111 0 0 0 
175 1 1 1.99574 3.04582 11.7972 0 0 0 
176 2 1 -1.39377 2.98733 13.6685 0 0 0 
177 3 1 -4.83985 2.28141 14.9108 0 0 0 
174 3 1 8.52489 0.400609 8.20626 0 0 0 
179 2 1 6.10874 2.8418 14.4179 0 0 0 
178 1 1 2.58127 3.78098 15.3156 0 0 0 
181 1 1 3.1668 4.51615 18.834 0 0 0 
182 2 1 -0.222713 4.45766 20.7053 0 0 0 
183 3 1 -3.66878 3.75174 21.9476 0 0 0 
180 3 1 9.69595 1.87094 15.2431 0 0 0 
185 2 1 7.2798 4.31212 21.4547 0 0 0 
186 3 1 10.867 3.34126 22.2798 0 0 0 
184 1 1 3.75233 5.25131 22.3524 0 0 0 
192 3 1 12.0381 4.81159 29.3167 0 0 0 
187 1 1 4.33786 5.98647 25.8708 0 0 0 
188 2 1 0.948347 5.92799 27.7421 0 0 0 
189 3 1 -2.49772 5.22207 28.9844 0 0 0 
190 1 1 4.9234 6.72164 29.3892 0 0 0 
194 2 1 2.11941 7.39832 34.7789 0 0 0 
191 2 1 8.45086 5.78245 28.4915 0 0 0 
193 1 1 5.50893 7.4568 32.9076 0 0 0 
195 3 1 -1.32666 6.69239 36.0212 0 0 0 
200 2 1 3.29047 8.86864 41.8157 0 0 0 
201 3 1 -0.155599 8.16272 43.058 0 0 0 
196 1 1 6.09446 8.19196 36.426 0 0 0 
197 2 1 9.62192 7.25278 35.5283 0 0 0 
198 3 1 13.2091 6.28192 36.3535 0 0 0 
199 1 1 6.67999 8.92713 39.9444 0 0 0 
202 1 1 7.26552 9.66229 43.4628 0 0 0 
203 2 1 10.793 8.72311 42.5651 0 0 0 
204 3 1 14.3802 7.75224 43.3903 0 0 0 
206 2 1 4.46153 10.339 48.8525 0 0 0 
207 3 1 1.01546 9.63305 50.0948 0 0 0 
205 1 1 7.85105 10.3974 46.9812 0 0 0 
208 1 1 8.43658 11.1326 50.4996 0 0 0 
209 2 1 11.964 10.1934 49.6019 0 0 0 
211 1 1 9.02211 11.8678 54.018 0 0 0 
210 3 1 15.5513 9.22257 50.4271 0 0 0 
213 3 1 2.18652 11.1034 57.1316 0 0 0 
219 3 1 3.35758 12.5737 64.1684 0 0 0 
212 2 1 5.63259 11.8093 55.8893 0 0 0 
214 1 1 9.60764 12.6029 57.5364 0 0 0 
215 2 1 13.1351 11.6638 56.6387 0 0 0 
217 1 1 10.1932 13.3381 61.0548 0 0 0 
218 2 1 6.80365 13.2796 62.9261 0 0 0 
220 1 1 10.7787 14.0733 64.5732 0 0 0 
221 2 1 14.3062 13.1341 63.6755 0 0 0 
216 3 1 16.7223 10.6929 57.4639 0 0 0 
222 3 1 17.8934 12.1632 64.5007 0 0 0 
225 3 1 4.52865 14.044 71.2052 0 0 0 
223 1 1 11.3642 14.8084 68.0916 0 0 0 
224 2 1 7.97472 14.75 69.9629 0 0 0 
227 2 1 15.4772 14.6044 70.7123 0 0 0 
228 3 1 19.0644 13.6335 71.5375 0 0 0 
226 1 1 11.9498 15.5436 71.61 0 0 0 
229 1 1 12.5353 16.2788 75.1284 0 0 0 
230 2 1 9.14578 16.2203 76.9997 0 0 0 
231 3 1 5.69971 15.5144 78.242 0 0 0 
232 1 1 13.1208 17.0139 78.6468 0 0 0 
235 1 1 13.7064 17.7491 82.1652 0 0 0 
236 2 1 10.3168 17.6906 84.0365 0 0 0 
233 2 1 16.6483 16.0747 77.7491 0 0 0 
234 3 1 20.2355 15.1039 78.5743 0 0 0 
239 2 1 17.8194 17.5451 84.7859 0 0 0 
237 3 1 6.87077 16.9847 85.2788 0 0 0 
238 1 1 14.2919 18.4842 85.6836 0 0 0 
241 1 1 14.8774 19.2194 89.202 0 0 0 
242 2 1 11.4879 19.1609 91.0733 0 0 0 
243 3 1 8.04183 18.455 92.3156 0 0 0 
240 3 1 21.4066 16.5742 85.6111 0 0 0 
244 1 1 15.4629 19.9546 92.7204 0 0 0 
245 2 1 18.9904 19.0154 91.8227 0 0 0 
246 3 1 22.5776 18.0445 92.6479 0 0 0 
248 2 1 12.659 20.6313 98.1101 0 0 0 
249 3 1 9.21289 19.9253 99.3524 0 0 0 
254 2 1 13.83 22.1016 105.147 0 0 0 
247 1 1 16.0485 20.6897 96.2388 0 0 0 
250 1 1 16.634 21.4249 99.7572 0 0 0 
251 2 1 20.1615 20.4857 98.8595 0 0 0 
252 3 1 23.7487 19.5149 99.6847 0 0 0 
253 1 1 17.2195 22.1601 103.276 0 0 0 
255 3 1 10.384 21.3957 106.389 0 0 0 
260 2 1 15.0011 23.5719 112.184 0 0 0 
261 3 1 11.555 22.866 113.426 0 0 0 
256 1 1 17.8051 22.8952 106.794 0 0 0 
257 2 1 21.3325 21.956 105.896 0 0 0 
258 3 1 24.9198 20.9852 106.721 0 0 0 
259 1 1 18.3906 23.6304 110.312 0 0 0 
262 1 1 18.9761 24.3656 113.831 0 0 0 
263 2 1 22.5036 23.4264 112.933 0 0 0 
264 3 1 26.0908 22.4555 113.758 0 0 0 
267 3 1 12.7261 24.3363 120.463 0 0 0 
266 2 1 16.1721 25.0422 119.22 0 0 0 
269 2 1 23.6747 24.8967 119.97 0 0 0 
270 3 1 27.2619 23.9258 120.795 0 0 0 
265 1 1 19.5617 25.1007 117.349 0 0 0 
268 1 1 20.1472 25.8359 120.868 0 0 0 
271 1 1 20.7327 26.571 124.386 0 0 0 
273 3 1 13.8971 25.8066 127.499 0 0 0 
272 2 1 17.3432 26.5126 126.257 0 0 0 
274 1 1 21.3182 27.3062 127.904 0 0 0 
275 2 1 24.8457 26.367 127.007 0 0 0 
277 1 1 21.9038 28.0414 131.423 0 0 0 
278 2 1 18.5143 27.9829 133.294 0 0 0 
279 3 1 15.0682 27.277 134.536 0 0 0 
280 1 1 22.4893 28.7765 134.941 0 0 0 
276 3 1 28.4329 25.3962 127.832 0 0 0 
281 2 1 26.0168 27.8374 134.043 0 0 0 
282 3 1 29.604 26.8665 134.869 0 0 0 
283 1 1 23.0748 29.5117 138.46 0 0 0 
284 2 1 19.6853 29.4532 140.331 0 0 0 
285 3 1 16.2393 28.7473 141.573 0 0 0 
286 1 1 23.6604 30.2469 141.978 0 0 0 
287 2 1 27.1878 29.3077 141.08 0 0 0 
288 3 1 30.7751 28.3368 141.905 0 0 0 
289 1 1 24.2459 30.982 145.496 0 0 0 
290 2 1 20.8564 30.9235 147.368 0 0 0 
291 3 1 17.4103 30.2176 148.61 0 0 0 
292 1 1 24.8314 31.7172 149.015 0 0 0 
296 2 1 22.0275 32.3939 154.405 0 0 0 
293 2 1 28.3589 30.778 148.117 0 0 0 
294 3 1 31.9461 29.8072 148.942 0 0 0 
295 1 1 25.417 32.4524 152.533 0 0 0 
299 2 1 29.53 32.2483 155.154 0 0 0 
297 3 1 18.5814 31.688 155.647 0 0 0 
302 2 1 23.1985 33.8642 161.441 0 0 0 
303 3 1 19.7524 33.1583 162.684 0 0 0 
298 1 1 26.0025 33.1875 156.052 0 0 0 
300 3 1 33.1172 31.2775 155.979 0 0 0 
301 1 1 26.588 33.9227 159.57 0 0 0 
304 1 1 27.1736 34.6579 163.088 0 0 0 
305 2 1 30.701 33.7187 162.191 0 0 0 
306 3 1 34.2882 32.7478 163.016 0 0 0 
309 3 1 20.9235 34.6286 169.72 0 0 0 
312 3 1 35.4593 34.2181 170.053 0 0 0 
308 2 1 24.3696 35.3345 168.478 0 0 0 
307 1 1 27.7591 35.393 166.607 0 0 0 
310 1 1 28.3446 36.1282 170.125 0 0 0 
311 2 1 31.8721 35.189 169.227 0 0 0 
313 1 1 28.9302 36.8633 173.644 0 0 0 
315 3 1 22.0946 36.0989 176.757 0 0 0 
321 3 1 23.2656 37.5693 183.794 0 0 0 
314 2 1 25.5406 36.8049 175.515 0 0 0 
316 1 1 29.5157 37.5985 177.162 0 0 0 
317 2 1 33.0431 36.6593 176.264 0 0 0 
319 1 1 30.1012 38.3337 180.68 0 0 0 
320 2 1 26.7117 38.2752 182.552 0 0 0 
322 1 1 30.6867 39.0688 184.199 0 0 0 
323 2 1 34.2142 38.1296 183.301 0 0 0 
318 3 1 36.6304 35.6885 177.089 0 0 0 
324 3 1 37.8014 37.1588 184.126 0 0 0 
327 3 1 24.4367 39.0396 190.831 0 0 0 
325 1 1 31.2723 39.804 187.717 0 0 0 
326 2 1 27.8828 39.7455 189.589 0 0 0 
328 1 1 31.8578 40.5391 191.236 0 0 0 
329 2 1 35.3853 39.6 190.338 0 0 0 
330 3 1 38.9725 38.6291 191.163 0 0 0 
ITEM: TIMESTEP
100000
ITEM: NUMBER OF ATOMS
330
ITEM: BOX BOUNDS pp pp pp
-215.614 215.614
-215.614 215.614
-215.614 215.614
ITEM: ATOMS id type mol x y z ix iy iz 
3 3 1 11.6276 -63.4489 -165.491 0 0 0 
1 1 1 7.91884 -68.8106 -161.7 0 0 0 
2 2 1 10.119 -66.8327 -164.434 0 0 0 
15 3 1 1.7235 -51.8819 -153.645 0 0 0 
7 1 1 7.45132 -63.3588 -156.866 0 0 0 
10 1 1 5.49291 -60.8691 -154.36 0 0 0 
14 2 1 1.5663 -55.4159 -152.721 0 0 0 
13 1 1 3.31134 -58.7194 -151.722 0 0 0 
4 1 1 8.67528 -65.7502 -159.622 0 0 0 
5 2 1 12.0508 -63.3011 -159.413 0 0 0 
8 2 1 10.4006 -60.9275 -155.663 0 0 0 
6 3 1 15.5333 -63.1848 -159.288 0 0 0 
9 3 1 9.79991 -58.4821 -158.581 0 0 0 
21 3 1 -1.65661 -49.2949 -143.491 0 0 0 
16 1 1 1.07378 -57.1172 -148.94 0 0 0 
11 2 1 4.74952 -57.0225 -155.592 0 0 0 
12 3 1 5.11204 -55.0582 -158.584 0 0 0 
19 1 1 -2.16951 -55.5916 -147.514 0 0 0 
20 2 1 -1.9486 -52.6522 -144.796 0 0 0 
22 1 1 -5.60497 -54.2166 -146.887 0 0 0 
23 2 1 -9.12773 -54.0808 -148.902 0 0 0 
18 3 1 2.57273 -56.0417 -141.794 0 0 0 
17 2 1 1.72692 -56.643 -145.436 0 0 0 
26 2 1 -6.54153 -51.5135 -140.97 0 0 0 
27 3 1 -4.07978 -49.4753 -139.399 0 0 0 
24 3 1 -12.7362 -54.9106 -150.161 0 0 0 
25 1 1 -8.29814 -52.5768 -144.296 0 0 0 
28 1 1 -11.226 -51.3638 -142.243 0 0 0 
31 1 1 -14.8941 -50.5033 -141.1 0 0 0 
34 1 1 -17.3833 -48.858 -138.663 0 0 0 
32 2 1 -18.1197 -51.4104 -143.337 0 0 0 
29 2 1 -10.6846 -49.5076 -138.877 0 0 0 
35 2 1 -20.9459 -47.283 -139.676 0 0 0 
33 3 1 -20.3137 -53.4702 -145.157 0 0 0 
36 3 1 -22.6732 -44.6859 -141.387 0 0 0 
44 2 1 -18.8081 -39.7219 -128.106 0 0 0 
43 1 1 -19.4032 -43.7106 -128.374 0 0 0 
40 1 1 -18.9912 -46.0515 -131.617 0 0 0 
45 3 1 -17.2162 -37.2156 -129.924 0 0 0 
30 3 1 -10.8274 -49.5158 -135.467 0 0 0 
41 2 1 -19.0869 -48.5402 -128.73 0 0 0 
42 3 1 -20.9415 -51.0161 -126.373 0 0 0 
39 3 1 -21.042 -40.3834 -136.569 0 0 0 
37 1 1 -18.5977 -47.3054 -135.264 0 0 0 
38 2 1 -20.9472 -44.0299 -135.522 0 0 0 
48 3 1 -20.029 -47.7287 -120.271 0 0 0 
47 2 1 -18.9923 -44.5085 -121.712 0 0 0 
46 1 1 -20.4558 -42.8084 -124.715 0 0 0 
50 2 1 -25.6502 -42.1095 -120.289 0 0 0 
51 3 1 -29.1263 -40.4827 -119.565 0 0 0 
49 1 1 -22.304 -41.213 -121.789 0 0 0 
52 1 1 -23.1416 -39.0894 -118.551 0 0 0 
53 2 1 -20.7135 -37.9244 -116.016 0 0 0 
54 3 1 -17.4079 -36.7937 -115.424 0 0 0 
63 3 1 -33.3601 -30.5111 -107.319 0 0 0 
57 3 1 -29.7832 -36.8479 -110.967 0 0 0 
55 1 1 -25.1077 -37.2374 -115.79 0 0 0 
58 1 1 -25.2965 -34.8549 -112.752 0 0 0 
56 2 1 -28.7465 -37.8449 -114.239 0 0 0 
61 1 1 -26.2963 -32.9208 -109.496 0 0 0 
62 2 1 -30.1268 -31.5688 -109.172 0 0 0 
59 2 1 -22.3003 -32.0518 -112.234 0 0 0 
60 3 1 -18.5167 -31.398 -112.341 0 0 0 
64 1 1 -26.6605 -31.2787 -106.062 0 0 0 
69 3 1 -21.0492 -23.6601 -102.886 0 0 0 
66 3 1 -31.252 -32.3498 -100.064 0 0 0 
71 2 1 -29.9199 -27.3957 -97.2223 0 0 0 
70 1 1 -26.6133 -27.7474 -99.4825 0 0 0 
73 1 1 -25.6373 -25.8014 -96.1651 0 0 0 
65 2 1 -28.8954 -32.2891 -102.841 0 0 0 
67 1 1 -26.08 -29.0295 -103.019 0 0 0 
68 2 1 -24.1145 -25.6678 -103.024 0 0 0 
74 2 1 -22.2017 -24.1291 -95.7545 0 0 0 
75 3 1 -18.7125 -22.9418 -97.0576 0 0 0 
84 3 1 -27.4488 -30.3883 -85.7561 0 0 0 
78 3 1 -31.4841 -27.9719 -89.3503 0 0 0 
77 2 1 -29.135 -25.3826 -90.8648 0 0 0 
83 2 1 -28.5516 -27.0385 -84.4478 0 0 0 
72 3 1 -32.8147 -28.3042 -95.3907 0 0 0 
80 2 1 -24.2461 -19.3111 -87.6021 0 0 0 
76 1 1 -25.747 -24.1196 -92.6482 0 0 0 
79 1 1 -26.222 -22.5632 -89.086 0 0 0 
82 1 1 -28.3101 -23.3503 -85.7721 0 0 0 
87 3 1 -32.8066 -30.074 -80.9578 0 0 0 
86 2 1 -31.35 -26.5496 -80.9378 0 0 0 
93 3 1 -33.9301 -31.3094 -74.9279 0 0 0 
85 1 1 -29.915 -23.3787 -82.0921 0 0 0 
88 1 1 -31.2062 -22.7473 -78.5384 0 0 0 
91 1 1 -32.3403 -23.7103 -74.883 0 0 0 
89 2 1 -32.0148 -19.2755 -76.5115 0 0 0 
81 3 1 -22.5215 -16.1182 -87.5081 0 0 0 
90 3 1 -32.0883 -15.7239 -75.0167 0 0 0 
92 2 1 -33.708 -27.4821 -74.7382 0 0 0 
99 3 1 -32.2576 -33.0118 -67.8676 0 0 0 
98 2 1 -33.6347 -29.6445 -66.4423 0 0 0 
94 1 1 -33.1624 -24.4032 -71.3757 0 0 0 
95 2 1 -34.5701 -21.4605 -68.8807 0 0 0 
97 1 1 -33.4595 -25.7632 -67.7395 0 0 0 
100 1 1 -34.5912 -25.8236 -64.1014 0 0 0 
96 3 1 -37.3526 -20.0119 -67.4512 0 0 0 
105 3 1 -29.8944 -22.6062 -58.1362 0 0 0 
104 2 1 -33.0935 -24.8313 -57.8091 0 0 0 
106 1 1 -36.1048 -28.2725 -56.8873 0 0 0 
103 1 1 -35.1338 -27.103 -60.4888 0 0 0 
101 2 1 -35.8695 -22.7207 -62.0224 0 0 0 
102 3 1 -35.992 -19.2213 -61.7095 0 0 0 
107 2 1 -39.1744 -30.5292 -55.5083 0 0 0 
108 3 1 -40.7195 -33.8637 -54.3806 0 0 0 
110 2 1 -32.4826 -25.1379 -52.3855 0 0 0 
109 1 1 -35.3044 -27.8989 -53.0697 0 0 0 
112 1 1 -34.2489 -27.9961 -49.347 0 0 0 
115 1 1 -32.3937 -26.5997 -46.2173 0 0 0 
113 2 1 -34.9229 -30.6343 -46.3886 0 0 0 
114 3 1 -34.6961 -31.9123 -43.0204 0 0 0 
111 3 1 -30.3713 -22.067 -53.4787 0 0 0 
120 3 1 -28.2247 -33.8709 -40.3714 0 0 0 
116 2 1 -31.6846 -23.2684 -44.5173 0 0 0 
117 3 1 -30.2715 -20.6996 -42.6947 0 0 0 
118 1 1 -30.1504 -27.1996 -43.1134 0 0 0 
121 1 1 -27.684 -26.6137 -40.1905 0 0 0 
122 2 1 -27.2476 -23.1922 -39.5763 0 0 0 
124 1 1 -25.4788 -26.7476 -37.0305 0 0 0 
119 2 1 -29.8513 -30.9415 -41.5497 0 0 0 
126 3 1 -22.6046 -32.9039 -34.008 0 0 0 
125 2 1 -24.6973 -29.7352 -34.6647 0 0 0 
128 2 1 -22.6852 -28.7652 -31.6954 0 0 0 
129 3 1 -22.737 -30.5728 -28.6956 0 0 0 
127 1 1 -23.0663 -25.7436 -34.2075 0 0 0 
130 1 1 -20.7482 -24.2598 -31.1004 0 0 0 
131 2 1 -17.6828 -26.1139 -29.4147 0 0 0 
132 3 1 -17.0531 -29.7872 -29.0592 0 0 0 
123 3 1 -24.9915 -20.5808 -40.0306 0 0 0 
133 1 1 -19.6738 -21.5063 -28.8398 0 0 0 
134 2 1 -15.5352 -21.6169 -28.9807 0 0 0 
136 1 1 -17.7295 -19.1426 -26.3203 0 0 0 
139 1 1 -14.76 -17.1272 -24.8751 0 0 0 
137 2 1 -18.8471 -18.0208 -22.5874 0 0 0 
138 3 1 -20.4792 -18.8509 -19.4853 0 0 0 
140 2 1 -11.1009 -18.1073 -24.6021 0 0 0 
141 3 1 -7.91803 -19.9228 -25.0042 0 0 0 
143 2 1 -9.26221 -12.5167 -23.4808 0 0 0 
144 3 1 -5.61597 -12.1395 -22.7537 0 0 0 
135 3 1 -12.2397 -21.0444 -30.1777 0 0 0 
142 1 1 -13.2013 -13.9385 -23.3011 0 0 0 
145 1 1 -12.9443 -10.6502 -21.2309 0 0 0 
146 2 1 -15.9084 -10.0263 -18.5262 0 0 0 
147 3 1 -17.5506 -9.44324 -15.2615 0 0 0 
148 1 1 -11.6767 -7.18565 -20.0931 0 0 0 
151 1 1 -12.331 -4.19538 -17.7812 0 0 0 
153 3 1 -18.6257 -3.616 -13.1975 0 0 0 
149 2 1 -8.00892 -5.31696 -20.558 0 0 0 
150 3 1 -5.46989 -2.55061 -20.8166 0 0 0 
152 2 1 -15.3874 -4.41718 -14.9549 0 0 0 
154 1 1 -12.2461 -0.991121 -15.5798 0 0 0 
157 1 1 -12.8962 1.39388 -12.7586 0 0 0 
160 1 1 -13.2609 4.35767 -10.2718 0 0 0 
156 3 1 -5.5517 2.63679 -15.8549 0 0 0 
155 2 1 -9.24184 1.71837 -16.0025 0 0 0 
161 2 1 -9.8814 5.40847 -9.68334 0 0 0 
165 3 1 -8.95069 11.8168 -6.35461 0 0 0 
164 2 1 -11.9044 9.78015 -6.84792 0 0 0 
162 3 1 -5.97895 5.12077 -9.80516 0 0 0 
158 2 1 -15.4108 0.0298053 -9.99073 0 0 0 
159 3 1 -15.9979 -1.95102 -7.01108 0 0 0 
163 1 1 -13.8827 6.9891 -7.50845 0 0 0 
168 3 1 -14.1583 16.4645 -6.91738 0 0 0 
166 1 1 -14.8983 9.14933 -4.4537 0 0 0 
167 2 1 -14.8912 13.3 -5.04849 0 0 0 
169 1 1 -15.9882 10.4 -0.988158 0 0 0 
170 2 1 -16.5581 7.57456 1.82021 0 0 0 
173 2 1 -20.1331 14.9792 2.33933 0 0 0 
174 3 1 -21.8935 17.9081 3.09723 0 0 0 
171 3 1 -15.9151 4.96032 4.34915 0 0 0 
177 3 1 -11.7232 9.34176 8.36004 0 0 0 
172 1 1 -17.0629 12.4461 2.14975 0 0 0 
175 1 1 -16.8196 13.7808 5.78473 0 0 0 
176 2 1 -13.9329 12.2703 7.64799 0 0 0 
178 1 1 -16.3762 14.8413 9.53536 0 0 0 
181 1 1 -16.5825 16.8682 12.9276 0 0 0 
182 2 1 -18.0684 20.527 13.802 0 0 0 
183 3 1 -15.6716 23.546 14.4346 0 0 0 
180 3 1 -13.7274 10.894 14.9448 0 0 0 
179 2 1 -13.9149 13.0851 12.2178 0 0 0 
186 3 1 -16.5328 11.9374 22.5096 0 0 0 
185 2 1 -16.6859 14.0659 19.6494 0 0 0 
188 2 1 -12.5377 21.8273 20.1931 0 0 0 
184 1 1 -16.0137 16.8586 16.8167 0 0 0 
187 1 1 -14.7499 18.4011 20.0792 0 0 0 
190 1 1 -14.8387 19.0712 24.0319 0 0 0 
189 3 1 -10.6526 24.4858 18.6494 0 0 0 
193 1 1 -13.9026 21.5026 26.9187 0 0 0 
194 2 1 -10.6493 23.9579 26.4455 0 0 0 
195 3 1 -8.10466 25.6318 24.046 0 0 0 
192 3 1 -18.1711 15.7857 30.2037 0 0 0 
191 2 1 -16.0112 17.4485 27.6467 0 0 0 
198 3 1 -17.7982 17.9954 35.0397 0 0 0 
196 1 1 -13.7632 22.7238 30.6595 0 0 0 
197 2 1 -16.305 21.0366 33.3992 0 0 0 
199 1 1 -12.8584 24.16 34.2061 0 0 0 
210 3 1 1.43754 26.7428 39.0911 0 0 0 
201 3 1 -17.1138 22.0881 40.372 0 0 0 
200 2 1 -15.2757 23.9848 37.611 0 0 0 
202 1 1 -11.036 25.653 37.4211 0 0 0 
205 1 1 -8.72147 26.7609 40.4005 0 0 0 
203 2 1 -12.878 25.0049 40.9496 0 0 0 
206 2 1 -9.81911 28.4259 43.8108 0 0 0 
204 3 1 -15.403 26.3514 43.4147 0 0 0 
208 1 1 -5.53385 26.7844 42.5728 0 0 0 
209 2 1 -1.70953 26.0865 41.3031 0 0 0 
207 3 1 -12.2964 30.0825 45.6351 0 0 0 
213 3 1 -3.51803 32.3936 50.4154 0 0 0 
212 2 1 -3.73512 29.3728 48.7082 0 0 0 
211 1 1 -3.28443 26.6592 45.7023 0 0 0 
214 1 1 -0.926061 25.7471 48.6589 0 0 0 
215 2 1 1.77392 22.6573 48.6804 0 0 0 
217 1 1 1.26477 25.6821 51.8129 0 0 0 
216 3 1 5.07844 23.2569 47.0863 0 0 0 
219 3 1 5.00607 19.7132 53.9001 0 0 0 
218 2 1 3.80854 22.8837 52.9971 0 0 0 
220 1 1 2.68217 27.2314 54.9792 0 0 0 
223 1 1 4.55665 27.9795 58.3938 0 0 0 
226 1 1 6.44523 27.7228 61.6692 0 0 0 
221 2 1 2.65815 31.2278 55.6128 0 0 0 
222 3 1 2.30498 34.9761 54.75 0 0 0 
224 2 1 5.19549 31.6608 59.5625 0 0 0 
225 3 1 4.29134 34.5277 61.7836 0 0 0 
228 3 1 10.4033 21.2585 61.6362 0 0 0 
227 2 1 8.61109 24.2586 62.2151 0 0 0 
231 3 1 13.8168 26.2597 66.6608 0 0 0 
229 1 1 8.20046 28.1247 65.206 0 0 0 
230 2 1 10.4474 25.8644 67.6673 0 0 0 
232 1 1 9.24626 30.3312 68.5235 0 0 0 
235 1 1 10.8684 31.689 71.7757 0 0 0 
233 2 1 6.7922 33.4812 69.0603 0 0 0 
234 3 1 3.68608 35.0442 70.5988 0 0 0 
237 3 1 17.2466 28.7785 73.0294 0 0 0 
236 2 1 14.5128 30.9129 72.4474 0 0 0 
238 1 1 11.5082 33.1537 75.2742 0 0 0 
239 2 1 10.2636 36.8488 76.7483 0 0 0 
241 1 1 12.6767 32.8189 78.9874 0 0 0 
242 2 1 12.7473 28.9996 80.4886 0 0 0 
244 1 1 13.6191 33.4817 82.7701 0 0 0 
240 3 1 7.49782 38.4689 78.2737 0 0 0 
246 3 1 8.53379 37.7002 86.3941 0 0 0 
245 2 1 10.9063 35.4812 85.2252 0 0 0 
243 3 1 13.8526 25.4882 80.9861 0 0 0 
248 2 1 16.6441 29.8891 88.2112 0 0 0 
249 3 1 18.057 26.5158 88.9825 0 0 0 
247 1 1 15.7717 33.2678 86.0912 0 0 0 
250 1 1 18.493 34.3794 88.8334 0 0 0 
251 2 1 18.9543 31.5141 91.74 0 0 0 
253 1 1 21.3257 36.0689 91.1117 0 0 0 
256 1 1 24.8269 36.0834 92.9822 0 0 0 
254 2 1 21.6616 40.0232 91.8438 0 0 0 
255 3 1 19.8416 41.9212 94.1404 0 0 0 
252 3 1 19.9154 28.496 93.3147 0 0 0 
257 2 1 26.4171 32.5515 92.7867 0 0 0 
258 3 1 25.9385 29.3144 91.5861 0 0 0 
266 2 1 38.5579 39.4411 97.5681 0 0 0 
267 3 1 41.7564 38.7436 95.9901 0 0 0 
263 2 1 34.8175 35.9884 94.7132 0 0 0 
264 3 1 37.6599 35.5585 92.0326 0 0 0 
269 2 1 40.498 38.1697 102.163 0 0 0 
261 3 1 28.4127 44.1052 97.3572 0 0 0 
259 1 1 28.0348 37.42 94.718 0 0 0 
260 2 1 28.342 40.7169 96.81 0 0 0 
262 1 1 31.537 37.8543 96.3791 0 0 0 
265 1 1 34.6701 38.4894 98.5059 0 0 0 
268 1 1 36.4453 38.7888 101.97 0 0 0 
270 3 1 44.2336 39.0224 102.333 0 0 0 
271 1 1 37.2674 39.068 105.857 0 0 0 
274 1 1 39.4969 40.1167 108.86 0 0 0 
276 3 1 46.211 43.4221 107.966 0 0 0 
275 2 1 43.4848 41.085 108.996 0 0 0 
273 3 1 32.8595 40.2841 110.381 0 0 0 
272 2 1 34.7908 37.3588 108.509 0 0 0 
277 1 1 40.8823 40.4042 112.267 0 0 0 
279 3 1 48.0751 38.9084 112.856 0 0 0 
278 2 1 44.8972 40.2628 112.83 0 0 0 
281 2 1 43.9401 42.5615 117.508 0 0 0 
280 1 1 41.028 40.3744 116.044 0 0 0 
282 3 1 43.8897 46.0143 118.156 0 0 0 
285 3 1 34.3617 41.2067 123.351 0 0 0 
288 3 1 36.5196 40.1879 129.007 0 0 0 
284 2 1 37.2761 39.6564 122.065 0 0 0 
283 1 1 40.6126 40.1507 119.919 0 0 0 
286 1 1 41.7733 40.1775 123.719 0 0 0 
289 1 1 44.8658 40.5095 125.978 0 0 0 
287 2 1 39.5252 40.4019 127.076 0 0 0 
294 3 1 43.113 48.3812 131.49 0 0 0 
290 2 1 48.5528 38.7214 126.175 0 0 0 
292 1 1 46.5413 41.7096 129.138 0 0 0 
295 1 1 48.2051 41.9317 132.645 0 0 0 
293 2 1 45.3706 45.3744 130.348 0 0 0 
298 1 1 48.3129 42.6175 136.501 0 0 0 
296 2 1 52.091 40.7846 133.173 0 0 0 
291 3 1 52.1242 38.3594 124.703 0 0 0 
297 3 1 54.9854 38.6172 131.965 0 0 0 
300 3 1 41.9921 45.7408 138.597 0 0 0 
302 2 1 53.7785 41.573 140.101 0 0 0 
301 1 1 49.8888 42.7046 139.881 0 0 0 
304 1 1 50.5732 42.5441 143.82 0 0 0 
299 2 1 44.966 43.5715 138.432 0 0 0 
303 3 1 56.4746 40.1842 137.777 0 0 0 
305 2 1 47.2196 41.4918 145.93 0 0 0 
312 3 1 46.5984 37.5931 154.618 0 0 0 
307 1 1 51.9169 42.2288 147.491 0 0 0 
313 1 1 54.0052 38.9271 153.836 0 0 0 
311 2 1 49.5703 38.2208 152.339 0 0 0 
310 1 1 52.5788 40.4165 150.75 0 0 0 
306 3 1 45.4287 38.9395 147.715 0 0 0 
308 2 1 54.3914 44.8076 149.485 0 0 0 
314 2 1 57.6972 40.4449 154.895 0 0 0 
309 3 1 56.6408 47.7921 149.679 0 0 0 
315 3 1 59.5701 42.1364 157.717 0 0 0 
321 3 1 46.5389 34.097 159.05 0 0 0 
320 2 1 49.6693 34.6237 160.621 0 0 0 
316 1 1 54.6971 37.0046 157.076 0 0 0 
322 1 1 53.6777 32.8108 163.599 0 0 0 
319 1 1 53.7413 34.7664 160.127 0 0 0 
317 2 1 58.0473 36.77 159.447 0 0 0 
318 3 1 59.9803 37.0298 162.63 0 0 0 
329 2 1 47.8804 38.0618 167.691 0 0 0 
330 3 1 47.3271 38.8624 164.478 0 0 0 
327 3 1 51.7924 26.2833 170.694 0 0 0 
326 2 1 51.796 29.8837 170.074 0 0 0 
323 2 1 55.4526 29.6657 165.507 0 0 0 
324 3 1 57.9742 27.802 167.682 0 0 0 
328 1 1 49.4651 34.6605 169.245 0 0 0 
325 1 1 51.9322 32.6208 166.956 0 0 0 
ITEM: TIMESTEP
200000
ITEM: NUMBER OF ATOMS
330
ITEM: BOX BOUNDS pp pp pp
-215.614 215.614
-215.614 215.614
-215.614 215.614
ITEM: ATOMS id type mol x y z ix iy iz 
1 1 1 -62.1728 -50.0559 -130.96 0 0 0 
2 2 1 -59.8189 -49.4735 -127.738 0 0 0 
4 1 1 -59.2204 -51.9018 -132.19 0 0 0 
7 1 1 -55.4883 -53.0355 -131.952 0 0 0 
6 3 1 -59.173 -53.5261 -139.501 0 0 0 
5 2 1 -58.5046 -53.7554 -135.816 0 0 0 
10 1 1 -51.6979 -53.5039 -131.204 0 0 0 
11 2 1 -48.7165 -56.0214 -132.441 0 0 0 
12 3 1 -46.0039 -58.4603 -132.032 0 0 0 
3 3 1 -58.2728 -47.5611 -125.096 0 0 0 
9 3 1 -53.4303 -50.4008 -126.028 0 0 0 
8 2 1 -54.0604 -52.8141 -128.814 0 0 0 
13 1 1 -48.6656 -52.5126 -128.921 0 0 0 
14 2 1 -47.5413 -49.2161 -128.835 0 0 0 
18 3 1 -43.3325 -56.3696 -121.494 0 0 0 
16 1 1 -45.453 -51.9481 -127.001 0 0 0 
17 2 1 -43.3293 -54.5773 -124.867 0 0 0 
19 1 1 -42.1911 -50.0187 -126.098 0 0 0 
20 2 1 -40.5799 -48.1232 -128.948 0 0 0 
21 3 1 -40.4916 -47.2062 -132.44 0 0 0 
23 2 1 -37.3834 -51.136 -121.771 0 0 0 
24 3 1 -37.564 -54.4195 -120.447 0 0 0 
15 3 1 -47.0445 -45.4515 -128.6 0 0 0 
22 1 1 -38.776 -48.6942 -124.597 0 0 0 
25 1 1 -35.926 -46.603 -123.287 0 0 0 
26 2 1 -34.8513 -43.3817 -125.213 0 0 0 
27 3 1 -35.331 -41.0322 -127.815 0 0 0 
28 1 1 -32.9136 -45.4701 -120.962 0 0 0 
29 2 1 -33.214 -45.8321 -116.877 0 0 0 
30 3 1 -32.7151 -44.8575 -113.529 0 0 0 
32 2 1 -26.3872 -42.4838 -119.866 0 0 0 
31 1 1 -29.7152 -44.531 -118.922 0 0 0 
34 1 1 -27.7637 -44.6624 -115.462 0 0 0 
37 1 1 -27.7271 -45.789 -111.782 0 0 0 
35 2 1 -24.3366 -43.6113 -114.196 0 0 0 
40 1 1 -26.2697 -45.6899 -108.25 0 0 0 
38 2 1 -29.8448 -47.9281 -109.219 0 0 0 
39 3 1 -30.5384 -51.2959 -107.698 0 0 0 
33 3 1 -24.9455 -39.2769 -120.045 0 0 0 
41 2 1 -25.6155 -49.0493 -106.028 0 0 0 
42 3 1 -25.9159 -52.254 -104.109 0 0 0 
36 3 1 -22.1964 -40.6949 -114.078 0 0 0 
46 1 1 -24.6803 -42.4434 -101.378 0 0 0 
49 1 1 -24.8817 -39.7274 -98.674 0 0 0 
44 2 1 -22.5339 -46.6941 -102.739 0 0 0 
43 1 1 -25.3287 -44.5318 -104.697 0 0 0 
47 2 1 -22.5397 -43.4483 -98.1062 0 0 0 
45 3 1 -19.2857 -47.8408 -101.114 0 0 0 
48 3 1 -21.1041 -45.5292 -95.5771 0 0 0 
57 3 1 -35.7871 -35.4229 -93.8236 0 0 0 
52 1 1 -26.2995 -37.9471 -95.5215 0 0 0 
55 1 1 -28.3871 -36.2064 -93.0217 0 0 0 
56 2 1 -32.0991 -35.2649 -93.9804 0 0 0 
53 2 1 -23.9652 -35.3669 -93.8745 0 0 0 
50 2 1 -22.8694 -36.4888 -98.2959 0 0 0 
51 3 1 -19.4399 -35.0264 -98.9368 0 0 0 
58 1 1 -29.9289 -34.5905 -89.6319 0 0 0 
59 2 1 -27.478 -31.6137 -88.0924 0 0 0 
61 1 1 -32.1698 -34.0377 -86.7215 0 0 0 
54 3 1 -23.4876 -31.9212 -94.6327 0 0 0 
60 3 1 -24.5116 -30.5376 -85.9383 0 0 0 
63 3 1 -30.6056 -33.065 -79.6554 0 0 0 
62 2 1 -30.9278 -34.7603 -82.898 0 0 0 
66 3 1 -40.7354 -28.0336 -84.408 0 0 0 
65 2 1 -37.5444 -29.9077 -85.3875 0 0 0 
67 1 1 -36.9968 -31.7233 -81.1507 0 0 0 
70 1 1 -37.0431 -29.987 -77.7054 0 0 0 
64 1 1 -34.8579 -32.8576 -84.1789 0 0 0 
69 3 1 -44.4416 -31.0181 -81.4319 0 0 0 
68 2 1 -40.9374 -31.4753 -80.375 0 0 0 
71 2 1 -33.5399 -29.2628 -76.0051 0 0 0 
72 3 1 -29.6287 -29.2308 -75.6977 0 0 0 
75 3 1 -43.337 -25.4343 -70.0496 0 0 0 
74 2 1 -41.1302 -26.8905 -72.4136 0 0 0 
73 1 1 -38.0955 -28.4526 -74.4158 0 0 0 
77 2 1 -33.7536 -29.0765 -69.0001 0 0 0 
78 3 1 -30.2317 -29.9648 -68.435 0 0 0 
76 1 1 -36.8834 -27.3274 -70.9072 0 0 0 