ITEM: TIMESTEP
0
ITEM: NUMBER OF ATOMS
336
ITEM: BOX BOUNDS pp pp pp
-216.913 216.913
-216.913 216.913
-216.913 216.913
ITEM: ATOMS id type mol x y z ix iy iz 
2 2 1 -35.9401 -40.3873 -193.917 0 0 0 
3 3 1 -39.3862 -41.0932 -192.675 0 0 0 
1 1 1 -32.5506 -40.3288 -195.788 0 0 0 
4 1 1 -31.965 -39.5937 -192.27 0 0 0 
5 2 1 -28.4376 -40.5329 -193.168 0 0 0 
7 1 1 -31.3795 -38.8585 -188.752 0 0 0 
8 2 1 -34.769 -38.917 -186.88 0 0 0 
6 3 1 -24.8503 -41.5037 -192.343 0 0 0 
9 3 1 -38.2151 -39.6229 -185.638 0 0 0 
15 3 1 -37.044 -38.1526 -178.601 0 0 0 
10 1 1 -30.794 -38.1233 -185.233 0 0 0 
11 2 1 -27.2665 -39.0625 -186.131 0 0 0 
13 1 1 -30.2084 -37.3882 -181.715 0 0 0 
14 2 1 -33.598 -37.4466 -179.844 0 0 0 
16 1 1 -29.6229 -36.653 -178.196 0 0 0 
17 2 1 -26.0954 -37.5922 -179.094 0 0 0 
12 3 1 -23.6793 -40.0334 -185.306 0 0 0 
18 3 1 -22.5082 -38.563 -178.269 0 0 0 
21 3 1 -35.873 -36.6823 -171.564 0 0 0 
19 1 1 -29.0374 -35.9178 -174.678 0 0 0 
20 2 1 -32.4269 -35.9763 -172.807 0 0 0 
23 2 1 -24.9244 -36.1219 -172.057 0 0 0 
24 3 1 -21.3372 -37.0927 -171.232 0 0 0 
22 1 1 -28.4519 -35.1827 -171.16 0 0 0 
25 1 1 -27.8663 -34.4475 -167.641 0 0 0 
30 3 1 -20.1661 -35.6224 -164.195 0 0 0 
26 2 1 -31.2558 -34.506 -165.77 0 0 0 
27 3 1 -34.7019 -35.2119 -164.528 0 0 0 
28 1 1 -27.2808 -33.7124 -164.123 0 0 0 
31 1 1 -26.6953 -32.9772 -160.604 0 0 0 
32 2 1 -30.0848 -33.0357 -158.733 0 0 0 
33 3 1 -33.5309 -33.7416 -157.491 0 0 0 
34 1 1 -26.1097 -32.242 -157.086 0 0 0 
29 2 1 -23.7533 -34.6515 -165.02 0 0 0 
35 2 1 -22.5823 -33.1812 -157.984 0 0 0 
36 3 1 -18.995 -34.1521 -157.159 0 0 0 
37 1 1 -25.5242 -31.5069 -153.568 0 0 0 
38 2 1 -28.9137 -31.5653 -151.696 0 0 0 
39 3 1 -32.3598 -32.2713 -150.454 0 0 0 
40 1 1 -24.9387 -30.7717 -150.049 0 0 0 
41 2 1 -21.4112 -31.7109 -150.947 0 0 0 
42 3 1 -17.824 -32.6817 -150.122 0 0 0 
43 1 1 -24.3531 -30.0365 -146.531 0 0 0 
44 2 1 -27.7427 -30.095 -144.66 0 0 0 
45 3 1 -31.1887 -30.8009 -143.417 0 0 0 
50 2 1 -26.5716 -28.6247 -137.623 0 0 0 
51 3 1 -30.0177 -29.3306 -136.38 0 0 0 
46 1 1 -23.7676 -29.3014 -143.012 0 0 0 
47 2 1 -20.2401 -30.2406 -143.91 0 0 0 
48 3 1 -16.6529 -31.2114 -143.085 0 0 0 
49 1 1 -23.1821 -28.5662 -139.494 0 0 0 
53 2 1 -19.0691 -28.7702 -136.873 0 0 0 
56 2 1 -25.4005 -27.1544 -130.586 0 0 0 
57 3 1 -28.8466 -27.8603 -129.344 0 0 0 
52 1 1 -22.5965 -27.831 -135.976 0 0 0 
54 3 1 -15.4819 -29.7411 -136.048 0 0 0 
55 1 1 -22.011 -27.0959 -132.457 0 0 0 
58 1 1 -21.4255 -26.3607 -128.939 0 0 0 
59 2 1 -17.898 -27.2999 -129.837 0 0 0 
60 3 1 -14.3108 -28.2708 -129.011 0 0 0 
63 3 1 -27.6755 -26.39 -122.307 0 0 0 
61 1 1 -20.84 -25.6256 -125.42 0 0 0 
62 2 1 -24.2295 -25.684 -123.549 0 0 0 
65 2 1 -16.7269 -25.8296 -122.8 0 0 0 
66 3 1 -13.1397 -26.8004 -121.975 0 0 0 
64 1 1 -20.2544 -24.8904 -121.902 0 0 0 
67 1 1 -19.6689 -24.1552 -118.384 0 0 0 
68 2 1 -23.0584 -24.2137 -116.512 0 0 0 
72 3 1 -11.9687 -25.3301 -114.938 0 0 0 
69 3 1 -26.5045 -24.9196 -115.27 0 0 0 
75 3 1 -25.3334 -23.4493 -108.233 0 0 0 
70 1 1 -19.0834 -23.4201 -114.865 0 0 0 
71 2 1 -15.5559 -24.3592 -115.763 0 0 0 
73 1 1 -18.4978 -22.6849 -111.347 0 0 0 
74 2 1 -21.8874 -22.7434 -109.475 0 0 0 
76 1 1 -17.9123 -21.9497 -107.828 0 0 0 
77 2 1 -14.3848 -22.8889 -108.726 0 0 0 
78 3 1 -10.7976 -23.8598 -107.901 0 0 0 
79 1 1 -17.3268 -21.2146 -104.31 0 0 0 
80 2 1 -20.7163 -21.2731 -102.439 0 0 0 
81 3 1 -24.1623 -21.979 -101.196 0 0 0 
82 1 1 -16.7412 -20.4794 -100.792 0 0 0 
85 1 1 -16.1557 -19.7443 -97.2732 0 0 0 
83 2 1 -13.2138 -21.4186 -101.689 0 0 0 
84 3 1 -9.62656 -22.3895 -100.864 0 0 0 
86 2 1 -19.5452 -19.8027 -95.4019 0 0 0 
87 3 1 -22.9913 -20.5086 -94.1596 0 0 0 
88 1 1 -15.5702 -19.0091 -93.7548 0 0 0 
92 2 1 -18.3742 -18.3324 -88.3651 0 0 0 
93 3 1 -21.8202 -19.0383 -87.1228 0 0 0 
89 2 1 -12.0427 -19.9483 -94.6525 0 0 0 
90 3 1 -8.4555 -20.9191 -93.8274 0 0 0 
91 1 1 -14.9846 -18.2739 -90.2364 0 0 0 
94 1 1 -14.3991 -17.5388 -86.718 0 0 0 
95 2 1 -10.8717 -18.4779 -87.6157 0 0 0 
96 3 1 -7.28443 -19.4488 -86.7906 0 0 0 
98 2 1 -17.2031 -16.8621 -81.3283 0 0 0 
99 3 1 -20.6492 -17.568 -80.0861 0 0 0 
97 1 1 -13.8136 -16.8036 -83.1996 0 0 0 
100 1 1 -13.228 -16.0684 -79.6812 0 0 0 
101 2 1 -9.70059 -17.0076 -80.5789 0 0 0 
102 3 1 -6.11337 -17.9785 -79.7538 0 0 0 
103 1 1 -12.6425 -15.3333 -76.1628 0 0 0 
104 2 1 -16.032 -15.3918 -74.2915 0 0 0 
105 3 1 -19.4781 -16.0977 -73.0493 0 0 0 
107 2 1 -8.52953 -15.5373 -73.5421 0 0 0 
108 3 1 -4.94231 -16.5082 -72.7169 0 0 0 
111 3 1 -18.3071 -14.6273 -66.0125 0 0 0 
106 1 1 -12.057 -14.5981 -72.6444 0 0 0 
109 1 1 -11.4715 -13.8629 -69.126 0 0 0 
110 2 1 -14.861 -13.9214 -67.2547 0 0 0 
112 1 1 -10.8859 -13.1278 -65.6076 0 0 0 
113 2 1 -7.35847 -14.067 -66.5053 0 0 0 
114 3 1 -3.77125 -15.0378 -65.6801 0 0 0 
117 3 1 -17.136 -13.157 -58.9757 0 0 0 
115 1 1 -10.3004 -12.3926 -62.0892 0 0 0 
116 2 1 -13.6899 -12.4511 -60.2179 0 0 0 
118 1 1 -9.71487 -11.6575 -58.5708 0 0 0 
119 2 1 -6.18741 -12.5966 -59.4685 0 0 0 
120 3 1 -2.60019 -13.5675 -58.6433 0 0 0 
123 3 1 -15.9649 -11.6867 -51.9389 0 0 0 
121 1 1 -9.12934 -10.9223 -55.0524 0 0 0 
122 2 1 -12.5189 -10.9808 -53.1811 0 0 0 
124 1 1 -8.54381 -10.1871 -51.534 0 0 0 
127 1 1 -7.95828 -9.45196 -48.0156 0 0 0 
128 2 1 -11.3478 -9.51044 -46.1443 0 0 0 
125 2 1 -5.01635 -11.1263 -52.4317 0 0 0 
126 3 1 -1.42913 -12.0972 -51.6065 0 0 0 
129 3 1 -14.7939 -10.2164 -44.9021 0 0 0 
130 1 1 -7.37275 -8.7168 -44.4972 0 0 0 
133 1 1 -6.78722 -7.98163 -40.9788 0 0 0 
134 2 1 -10.1767 -8.04012 -39.1075 0 0 0 
135 3 1 -13.6228 -8.74604 -37.8652 0 0 0 
136 1 1 -6.20169 -7.24647 -37.4604 0 0 0 
131 2 1 -3.84528 -9.65598 -45.3949 0 0 0 
132 3 1 -0.258066 -10.6268 -44.5697 0 0 0 
137 2 1 -2.67422 -8.18566 -38.3581 0 0 0 
138 3 1 0.912995 -9.15652 -37.5329 0 0 0 
139 1 1 -5.61616 -6.51131 -33.942 0 0 0 
140 2 1 -9.00567 -6.56979 -32.0707 0 0 0 
141 3 1 -12.4517 -7.27571 -30.8284 0 0 0 
142 1 1 -5.03063 -5.77614 -30.4236 0 0 0 
143 2 1 -1.50316 -6.71533 -31.3213 0 0 0 
144 3 1 2.08406 -7.68619 -30.4962 0 0 0 
145 1 1 -4.4451 -5.04098 -26.9052 0 0 0 
146 2 1 -7.83461 -5.09946 -25.0339 0 0 0 
147 3 1 -11.2807 -5.80539 -23.7916 0 0 0 
149 2 1 -0.332099 -5.245 -24.2845 0 0 0 
150 3 1 3.25512 -6.21586 -23.4593 0 0 0 
152 2 1 -6.66355 -3.62914 -17.9971 0 0 0 
153 3 1 -10.1096 -4.33506 -16.7548 0 0 0 
148 1 1 -3.85956 -4.30582 -23.3868 0 0 0 
151 1 1 -3.27403 -3.57065 -19.8684 0 0 0 
154 1 1 -2.6885 -2.83549 -16.35 0 0 0 
155 2 1 0.838961 -3.77467 -17.2477 0 0 0 
156 3 1 4.42618 -4.74554 -16.4225 0 0 0 
158 2 1 -5.49249 -2.15881 -10.9603 0 0 0 
159 3 1 -8.93856 -2.86473 -9.71804 0 0 0 
157 1 1 -2.10297 -2.10033 -12.8316 0 0 0 
160 1 1 -1.51744 -1.36516 -9.31319 0 0 0 
161 2 1 2.01002 -2.30435 -10.2109 0 0 0 
163 1 1 -0.931911 -0.629998 -5.79479 0 0 0 
162 3 1 5.59724 -3.27521 -9.38575 0 0 0 
165 3 1 -7.7675 -1.3944 -2.68124 0 0 0 
171 3 1 -6.59644 0.075921 4.35556 0 0 0 
164 2 1 -4.32143 -0.688482 -3.92353 0 0 0 
166 1 1 -0.34638 0.105164 -2.27638 0 0 0 
167 2 1 3.18108 -0.83402 -3.17409 0 0 0 
169 1 1 0.23915 0.840328 1.24202 0 0 0 
170 2 1 -3.15037 0.781844 3.11327 0 0 0 
172 1 1 0.82468 1.57549 4.76042 0 0 0 
173 2 1 4.35215 0.636306 3.86271 0 0 0 
168 3 1 6.7683 -1.80488 -2.34895 0 0 0 
174 3 1 7.93936 -0.334554 4.68786 0 0 0 
177 3 1 -5.42537 1.54625 11.3924 0 0 0 
175 1 1 1.41021 2.31066 8.27882 0 0 0 
176 2 1 -1.97931 2.25217 10.1501 0 0 0 
178 1 1 1.99574 3.04582 11.7972 0 0 0 
179 2 1 5.52321 2.10663 10.8995 0 0 0 
180 3 1 9.11042 1.13577 11.7247 0 0 0 
181 1 1 2.58127 3.78098 15.3156 0 0 0 
182 2 1 -0.808244 3.7225 17.1869 0 0 0 
183 3 1 -4.25431 3.01658 18.4292 0 0 0 
184 1 1 3.1668 4.51615 18.834 0 0 0 
185 2 1 6.69427 3.57696 17.9363 0 0 0 
186 3 1 10.2815 2.6061 18.7614 0 0 0 
187 1 1 3.75233 5.25131 22.3524 0 0 0 
188 2 1 0.362816 5.19283 24.2237 0 0 0 
191 2 1 7.86533 5.04729 24.9731 0 0 0 
189 3 1 -3.08325 4.4869 25.466 0 0 0 
192 3 1 11.4525 4.07643 25.7983 0 0 0 
190 1 1 4.33786 5.98647 25.8708 0 0 0 
193 1 1 4.9234 6.72164 29.3892 0 0 0 
194 2 1 1.53388 6.66315 31.2605 0 0 0 
195 3 1 -1.91219 5.95723 32.5028 0 0 0 
196 1 1 5.50893 7.4568 32.9076 0 0 0 
197 2 1 9.03639 6.51761 32.0099 0 0 0 
198 3 1 12.6236 5.54675 32.8351 0 0 0 
200 2 1 2.70494 8.13348 38.2973 0 0 0 
201 3 1 -0.74113 7.42756 39.5396 0 0 0 
206 2 1 3.876 9.60381 45.3341 0 0 0 
199 1 1 6.09446 8.19196 36.426 0 0 0 
202 1 1 6.67999 8.92713 39.9444 0 0 0 
203 2 1 10.2074 7.98794 39.0467 0 0 0 
204 3 1 13.7947 7.01708 39.8719 0 0 0 
205 1 1 7.26552 9.66229 43.4628 0 0 0 
207 3 1 0.429931 8.89788 46.5764 0 0 0 
213 3 1 1.60099 10.3682 53.6132 0 0 0 
208 1 1 7.85105 10.3974 46.9812 0 0 0 
209 2 1 11.3785 9.45827 46.0835 0 0 0 
210 3 1 14.9657 8.48741 46.9087 0 0 0 
211 1 1 8.43658 11.1326 50.4996 0 0 0 
212 2 1 5.04706 11.0741 52.3709 0 0 0 
214 1 1 9.02211 11.8678 54.018 0 0 0 
215 2 1 12.5496 10.9286 53.1203 0 0 0 
216 3 1 16.1368 9.95773 53.9455 0 0 0 
219 3 1 2.77205 11.8385 60.65 0 0 0 
217 1 1 9.60764 12.6029 57.5364 0 0 0 
218 2 1 6.21812 12.5445 59.4077 0 0 0 
220 1 1 10.1932 13.3381 61.0548 0 0 0 
221 2 1 13.7206 12.3989 60.1571 0 0 0 
223 1 1 10.7787 14.0733 64.5732 0 0 0 
222 3 1 17.3078 11.4281 60.9823 0 0 0 
225 3 1 3.94312 13.3089 67.6868 0 0 0 
224 2 1 7.38919 14.0148 66.4445 0 0 0 
226 1 1 11.3642 14.8084 68.0916 0 0 0 
227 2 1 14.8917 13.8692 67.1939 0 0 0 
231 3 1 5.11418 14.7792 74.7236 0 0 0 
228 3 1 18.4789 12.8984 68.0191 0 0 0 
234 3 1 19.65 14.3687 75.0559 0 0 0 
229 1 1 11.9498 15.5436 71.61 0 0 0 
230 2 1 8.56025 15.4851 73.4813 0 0 0 
232 1 1 12.5353 16.2788 75.1284 0 0 0 
233 2 1 16.0628 15.3396 74.2307 0 0 0 
235 1 1 13.1208 17.0139 78.6468 0 0 0 
236 2 1 9.73131 16.9554 80.5181 0 0 0 
237 3 1 6.28524 16.2495 81.7604 0 0 0 
238 1 1 13.7064 17.7491 82.1652 0 0 0 
241 1 1 14.2919 18.4842 85.6836 0 0 0 
239 2 1 17.2338 16.8099 81.2675 0 0 0 
240 3 1 20.821 15.839 82.0927 0 0 0 
242 2 1 10.9024 18.4258 87.5549 0 0 0 
243 3 1 7.4563 17.7198 88.7972 0 0 0 
244 1 1 14.8774 19.2194 89.202 0 0 0 
248 2 1 12.0734 19.8961 94.5917 0 0 0 
249 3 1 8.62736 19.1902 95.834 0 0 0 
245 2 1 18.4049 18.2802 88.3043 0 0 0 
246 3 1 21.9921 17.3094 89.1295 0 0 0 
247 1 1 15.4629 19.9546 92.7204 0 0 0 
251 2 1 19.5759 19.7506 95.3411 0 0 0 
254 2 1 13.2445 21.3664 101.628 0 0 0 
255 3 1 9.79842 20.6605 102.871 0 0 0 
250 1 1 16.0485 20.6897 96.2388 0 0 0 
252 3 1 23.1632 18.7797 96.1663 0 0 0 
253 1 1 16.634 21.4249 99.7572 0 0 0 
256 1 1 17.2195 22.1601 103.276 0 0 0 
257 2 1 20.747 21.2209 102.378 0 0 0 
258 3 1 24.3342 20.25 103.203 0 0 0 
260 2 1 14.4155 22.8367 108.665 0 0 0 
261 3 1 10.9695 22.1308 109.907 0 0 0 
259 1 1 17.8051 22.8952 106.794 0 0 0 
262 1 1 18.3906 23.6304 110.312 0 0 0 
263 2 1 21.9181 22.6912 109.415 0 0 0 
265 1 1 18.9761 24.3656 113.831 0 0 0 
266 2 1 15.5866 24.3071 115.702 0 0 0 
264 3 1 25.5053 21.7203 110.24 0 0 0 
267 3 1 12.1405 23.6012 116.944 0 0 0 
273 3 1 13.3116 25.0715 123.981 0 0 0 
268 1 1 19.5617 25.1007 117.349 0 0 0 
269 2 1 23.0891 24.1615 116.451 0 0 0 
270 3 1 26.6763 23.1907 117.277 0 0 0 
276 3 1 27.8474 24.661 124.313 0 0 0 
271 1 1 20.1472 25.8359 120.868 0 0 0 
272 2 1 16.7577 25.7774 122.739 0 0 0 
274 1 1 20.7327 26.571 124.386 0 0 0 
275 2 1 24.2602 25.6319 123.488 0 0 0 
279 3 1 14.4827 26.5418 131.018 0 0 0 
277 1 1 21.3182 27.3062 127.904 0 0 0 
278 2 1 17.9287 27.2477 129.776 0 0 0 
280 1 1 21.9038 28.0414 131.423 0 0 0 
283 1 1 22.4893 28.7765 134.941 0 0 0 
281 2 1 25.4312 27.1022 130.525 0 0 0 
282 3 1 29.0185 26.1313 131.35 0 0 0 
284 2 1 19.0998 28.7181 136.812 0 0 0 
285 3 1 15.6537 28.0121 138.055 0 0 0 
286 1 1 23.0748 29.5117 138.46 0 0 0 
289 1 1 23.6604 30.2469 141.978 0 0 0 
290 2 1 20.2709 30.1884 143.849 0 0 0 
291 3 1 16.8248 29.4825 145.091 0 0 0 
292 1 1 24.2459 30.982 145.496 0 0 0 
287 2 1 26.6023 28.5725 137.562 0 0 0 
288 3 1 30.1895 27.6017 138.387 0 0 0 
293 2 1 27.7734 30.0428 144.599 0 0 0 
294 3 1 31.3606 29.072 145.424 0 0 0 
295 1 1 24.8314 31.7172 149.015 0 0 0 
296 2 1 21.4419 31.6587 150.886 0 0 0 
297 3 1 17.9959 30.9528 152.128 0 0 0 
298 1 1 25.417 32.4524 152.533 0 0 0 
299 2 1 28.9444 31.5132 151.636 0 0 0 
300 3 1 32.5316 30.5423 152.461 0 0 0 
301 1 1 26.0025 33.1875 156.052 0 0 0 
302 2 1 22.613 33.129 157.923 0 0 0 
303 3 1 19.1669 32.4231 159.165 0 0 0 
308 2 1 23.784 34.5994 164.96 0 0 0 
309 3 1 20.338 33.8934 166.202 0 0 0 
304 1 1 26.588 33.9227 159.57 0 0 0 
305 2 1 30.1155 32.9835 158.672 0 0 0 
306 3 1 33.7027 32.0126 159.497 0 0 0 
307 1 1 27.1736 34.6579 163.088 0 0 0 
311 2 1 31.2865 34.4538 165.709 0 0 0 
312 3 1 34.8738 33.483 166.534 0 0 0 
318 3 1 36.0448 34.9533 173.571 0 0 0 
314 2 1 24.9551 36.0697 171.996 0 0 0 
315 3 1 21.509 35.3638 173.239 0 0 0 
310 1 1 27.7591 35.393 166.607 0 0 0 
313 1 1 28.3446 36.1282 170.125 0 0 0 
316 1 1 28.9302 36.8633 173.644 0 0 0 
317 2 1 32.4576 35.9241 172.746 0 0 0 
321 3 1 22.6801 36.8341 180.275 0 0 0 
319 1 1 29.5157 37.5985 177.162 0 0 0 
320 2 1 26.1262 37.54 179.033 0 0 0 
322 1 1 30.1012 38.3337 180.68 0 0 0 
323 2 1 33.6287 37.3945 179.783 0 0 0 
325 1 1 30.6867 39.0688 184.199 0 0 0 
326 2 1 27.2972 39.0103 186.07 0 0 0 
324 3 1 37.2159 36.4236 180.608 0 0 0 
327 3 1 23.8512 38.3044 187.312 0 0 0 
333 3 1 25.0222 39.7747 194.349 0 0 0 
328 1 1 31.2723 39.804 187.717 0 0 0 
329 2 1 34.7997 38.8648 186.82 0 0 0 
331 1 1 31.8578 40.5391 191.236 0 0 0 
332 2 1 28.4683 40.4807 193.107 0 0 0 
334 1 1 32.4433 41.2743 194.754 0 0 0 
330 3 1 38.387 37.8939 187.645 0 0 0 
335 2 1 35.9708 40.3351 193.856 0 0 0 
336 3 1 39.558 39.3643 194.681 0 0 0 
ITEM: TIMESTEP
100000
ITEM: NUMBER OF ATOMS
336
ITEM: BOX BOUNDS pp pp pp
-216.913 216.913
-216.913 216.913
-216.913 216.913
ITEM: ATOMS id type mol x y z ix iy iz 
5 2 1 -35.8745 -40.2747 -176.966 0 0 0 
4 1 1 -37.3767 -39.4731 -173.423 0 0 0 
7 1 1 -33.898 -40.5252 -172.642 0 0 0 
9 3 1 -31.9172 -45.3427 -177.74 0 0 0 
8 2 1 -31.6745 -43.1837 -174.765 0 0 0 
11 2 1 -27.2282 -43.0765 -171.763 0 0 0 
10 1 1 -30.7086 -41.1779 -170.551 0 0 0 
12 3 1 -26.2847 -42.125 -175.049 0 0 0 
1 1 1 -41.2027 -38.8616 -173.624 0 0 0 
6 3 1 -35.3188 -39.5348 -180.738 0 0 0 
15 3 1 -21.5789 -37.6979 -170.228 0 0 0 
13 1 1 -27.9666 -41.1202 -167.684 0 0 0 
16 1 1 -26.3281 -42.0905 -164.284 0 0 0 
17 2 1 -27.5026 -44.3826 -161.345 0 0 0 
14 2 1 -24.1889 -39.8213 -168.474 0 0 0 
19 1 1 -23.8241 -42.0741 -161.284 0 0 0 
20 2 1 -20.7308 -39.5734 -160.903 0 0 0 
21 3 1 -18.9348 -36.1391 -160.57 0 0 0 
2 2 1 -39.288 -36.0868 -171.276 0 0 0 
3 3 1 -36.5846 -33.8879 -170.401 0 0 0 
18 3 1 -28.2684 -47.426 -159.85 0 0 0 
24 3 1 -25.931 -47.6853 -153.687 0 0 0 
22 1 1 -22.9702 -43.2672 -157.774 0 0 0 
26 2 1 -18.2183 -42.1205 -153.271 0 0 0 
27 3 1 -15.4677 -40.1434 -153.736 0 0 0 
25 1 1 -21.7321 -43.9345 -154.293 0 0 0 
23 2 1 -26.4197 -44.5612 -155.877 0 0 0 
28 1 1 -21.3833 -45.1465 -150.531 0 0 0 
35 2 1 -22.5135 -47.9617 -140.892 0 0 0 
36 3 1 -21.4947 -51.1493 -139.501 0 0 0 
32 2 1 -17.2241 -43.0714 -144.996 0 0 0 
29 2 1 -24.0321 -47.5024 -148.914 0 0 0 
31 1 1 -20.3731 -44.9117 -146.766 0 0 0 
34 1 1 -20.4442 -45.0739 -142.795 0 0 0 
37 1 1 -19.8396 -44.8541 -139.01 0 0 0 
30 3 1 -23.4399 -50.8399 -147.131 0 0 0 
33 3 1 -13.8362 -42.3186 -144.974 0 0 0 
44 2 1 -17.0024 -46.271 -129.395 0 0 0 
45 3 1 -18.6251 -48.9736 -127.382 0 0 0 
40 1 1 -18.0514 -43.7113 -135.484 0 0 0 
43 1 1 -16.9088 -43.1668 -131.785 0 0 0 
39 3 1 -22.0073 -50.3143 -133.753 0 0 0 
38 2 1 -21.2984 -47.2314 -135.919 0 0 0 
42 3 1 -15.4997 -36.6552 -135.417 0 0 0 
41 2 1 -15.8857 -40.3755 -135.354 0 0 0 
46 1 1 -15.5191 -41.4963 -128.564 0 0 0 
53 2 1 -11.11 -35.3118 -120.821 0 0 0 
54 3 1 -11.8668 -31.918 -121.798 0 0 0 
50 2 1 -15.7401 -42.5384 -121.719 0 0 0 
47 2 1 -14.2983 -37.654 -128.595 0 0 0 
49 1 1 -14.4511 -40.3599 -124.896 0 0 0 
52 1 1 -12.4844 -39.0511 -121.778 0 0 0 
48 3 1 -11.8634 -35.4802 -130.402 0 0 0 
51 3 1 -17.5187 -42.7545 -118.482 0 0 0 
60 3 1 -9.76192 -47.5192 -115.325 0 0 0 
63 3 1 -8.89611 -48.1978 -109.268 0 0 0 
55 1 1 -10.9661 -39.2158 -118.207 0 0 0 
57 3 1 -8.60612 -33.1664 -114.921 0 0 0 
56 2 1 -10.0408 -36.2903 -116.464 0 0 0 
58 1 1 -9.98439 -40.7867 -114.733 0 0 0 
59 2 1 -10.4308 -44.259 -114.014 0 0 0 
61 1 1 -8.64034 -41.0174 -111.155 0 0 0 
64 1 1 -7.03942 -39.6983 -107.834 0 0 0 
62 2 1 -8.86834 -44.496 -109.232 0 0 0 
65 2 1 -5.21424 -36.0929 -108.334 0 0 0 
66 3 1 -2.38473 -34.2603 -110.388 0 0 0 
68 2 1 -4.98103 -35.5066 -103.109 0 0 0 
67 1 1 -5.63137 -39.3966 -104.205 0 0 0 
70 1 1 -4.63745 -39.9078 -100.463 0 0 0 
71 2 1 -3.7582 -37.1053 -98.6657 0 0 0 
73 1 1 -3.91571 -40.9072 -96.6628 0 0 0 
72 3 1 -1.63446 -34.4461 -98.16 0 0 0 
69 3 1 -6.18901 -32.1312 -101.776 0 0 0 
84 3 1 7.5391 -45.9652 -85.771 0 0 0 
77 2 1 -3.93212 -46.1034 -91.8573 0 0 0 
76 1 1 -3.17572 -42.3162 -93.2221 0 0 0 
79 1 1 -1.35218 -41.8196 -89.7998 0 0 0 
82 1 1 1.06075 -42.0281 -86.8476 0 0 0 
80 2 1 -1.95232 -38.4515 -87.5331 0 0 0 
83 2 1 4.28529 -44.0469 -85.7238 0 0 0 
78 3 1 -1.29665 -48.7793 -91.4574 0 0 0 
74 2 1 -2.51326 -37.9768 -94.0905 0 0 0 
75 3 1 -1.97897 -35.2815 -91.331 0 0 0 
86 2 1 -0.661982 -37.9663 -81.5513 0 0 0 
88 1 1 2.93891 -40.0414 -79.6285 0 0 0 
85 1 1 1.63835 -40.8408 -83.2348 0 0 0 
81 3 1 -0.39305 -35.1092 -86.3518 0 0 0 
87 3 1 -3.17141 -34.9685 -81.804 0 0 0 
93 3 1 -0.529127 -32.4132 -77.133 0 0 0 
89 2 1 5.55437 -41.9397 -77.4491 0 0 0 
92 2 1 2.41802 -34.5806 -76.5509 0 0 0 
90 3 1 8.69811 -43.9539 -77.4369 0 0 0 
91 1 1 3.41353 -37.9449 -76.3535 0 0 0 
96 3 1 4.07063 -41.1399 -67.4564 0 0 0 
97 1 1 6.09948 -33.7327 -70.6201 0 0 0 
94 1 1 4.30626 -36.1333 -73.1404 0 0 0 
95 2 1 4.16493 -37.9256 -69.4968 0 0 0 
99 3 1 10.2388 -27.5984 -71.2672 0 0 0 
98 2 1 7.4944 -29.9472 -71.801 0 0 0 
100 1 1 7.43794 -32.1846 -67.4363 0 0 0 
102 3 1 6.78691 -35.8138 -60.5304 0 0 0 
101 2 1 7.50069 -34.5764 -64.1166 0 0 0 
104 2 1 12.3815 -27.8599 -65.4421 0 0 0 
105 3 1 14.7054 -25.5594 -67.4785 0 0 0 
103 1 1 8.7464 -29.6151 -64.9433 0 0 0 
106 1 1 8.93331 -27.869 -61.5651 0 0 0 
109 1 1 10.2478 -25.6849 -58.6804 0 0 0 
110 2 1 13.0206 -23.3693 -60.0382 0 0 0 
111 3 1 14.2597 -20.2856 -61.7371 0 0 0 
107 2 1 7.64813 -29.053 -58.2583 0 0 0 
108 3 1 7.61713 -30.3798 -55.05 0 0 0 
112 1 1 11.9805 -23.8458 -55.5994 0 0 0 
115 1 1 13.0856 -22.7546 -52.0601 0 0 0 
118 1 1 13.2629 -22.0729 -48.3111 0 0 0 
113 2 1 15.3874 -21.7794 -56.0966 0 0 0 
116 2 1 17.0591 -23.5964 -51.4696 0 0 0 
114 3 1 16.9424 -18.6852 -55.2339 0 0 0 
117 3 1 20.1444 -23.5426 -53.5889 0 0 0 
129 3 1 5.63164 -25.9581 -32.9226 0 0 0 
125 2 1 14.0295 -20.8839 -38.2015 0 0 0 
128 2 1 6.94585 -23.3891 -34.8708 0 0 0 
119 2 1 15.5352 -20.2354 -45.5981 0 0 0 
124 1 1 11.2878 -21.9972 -40.9643 0 0 0 
127 1 1 9.72915 -21.7669 -37.3337 0 0 0 
121 1 1 12.0398 -22.3404 -44.6565 0 0 0 
122 2 1 9.36642 -24.2148 -43.5118 0 0 0 
123 3 1 5.92639 -24.7863 -42.8996 0 0 0 
120 3 1 17.9268 -19.6899 -42.7149 0 0 0 
126 3 1 16.7355 -22.0757 -36.1263 0 0 0 
135 3 1 9.28109 -27.9396 -28.2625 0 0 0 
134 2 1 8.72368 -24.4803 -28.6313 0 0 0 
130 1 1 9.53451 -20.3232 -33.6819 0 0 0 
133 1 1 8.22495 -20.7614 -29.9891 0 0 0 
136 1 1 7.54953 -20.7321 -26.1755 0 0 0 
132 3 1 10.5747 -16.084 -28.0844 0 0 0 
131 2 1 10.0304 -16.7819 -31.8053 0 0 0 
137 2 1 6.8249 -24.4189 -24.2484 0 0 0 
138 3 1 7.51575 -27.4731 -22.7037 0 0 0 
140 2 1 3.27211 -19.345 -21.171 0 0 0 
139 1 1 7.08085 -19.5486 -22.5739 0 0 0 
143 2 1 10.836 -16.5894 -18.5109 0 0 0 
142 1 1 7.60166 -19.0726 -18.8234 0 0 0 
145 1 1 7.08531 -18.2617 -14.9553 0 0 0 
144 3 1 12.1994 -13.4104 -18.7616 0 0 0 
141 3 1 -0.155001 -19.0406 -21.7868 0 0 0 
148 1 1 5.74994 -17.5955 -11.3089 0 0 0 
151 1 1 4.76802 -16.1022 -7.81145 0 0 0 
147 3 1 10.8096 -12.8747 -11.9317 0 0 0 
152 2 1 6.16065 -17.9018 -4.39117 0 0 0 
150 3 1 -1.17749 -20.3072 -10.1208 0 0 0 
149 2 1 2.28209 -19.4081 -10.1975 0 0 0 
154 1 1 3.47877 -14.3027 -4.65494 0 0 0 
155 2 1 1.47281 -10.8103 -4.10559 0 0 0 
156 3 1 1.01699 -6.93858 -3.73926 0 0 0 
146 2 1 9.89115 -16.1251 -13.0914 0 0 0 
153 3 1 8.63972 -19.8363 -2.62249 0 0 0 
162 3 1 1.4296 -16.5617 9.57434 0 0 0 
161 2 1 2.50571 -15.5889 5.97927 0 0 0 
159 3 1 7.41849 -18.719 2.9463 0 0 0 
157 1 1 3.13475 -14.1746 -0.952459 0 0 0 
158 2 1 4.23998 -16.832 1.84285 0 0 0 
163 1 1 2.74252 -11.0083 6.09932 0 0 0 
160 1 1 2.7765 -13.1178 2.76288 0 0 0 
165 3 1 8.72518 -6.42307 6.54303 0 0 0 
172 1 1 -1.65996 -8.32562 16.0427 0 0 0 
170 2 1 2.60874 -6.17269 15.6139 0 0 0 
166 1 1 2.11642 -9.7531 9.63887 0 0 0 
169 1 1 0.782492 -8.81822 13.1593 0 0 0 
167 2 1 4.44255 -6.38929 10.1312 0 0 0 
164 2 1 5.56214 -8.34011 6.26296 0 0 0 
168 3 1 5.85874 -2.88105 10.8596 0 0 0 
177 3 1 -10.43 -11.3054 16.8802 0 0 0 
176 2 1 -8.03739 -8.91721 18.3094 0 0 0 
178 1 1 -6.26058 -8.44208 22.2106 0 0 0 
181 1 1 -8.78738 -9.15195 25.1118 0 0 0 
179 2 1 -4.20863 -8.81923 25.6555 0 0 0 
180 3 1 -2.04612 -8.12292 28.428 0 0 0 
171 3 1 3.96746 -2.68686 16.7182 0 0 0 
173 2 1 -0.0971755 -6.24319 19.1298 0 0 0 
175 1 1 -4.42386 -8.32669 18.745 0 0 0 
174 3 1 2.79589 -5.59959 21.7081 0 0 0 
189 3 1 -19.2837 -8.26448 29.8128 0 0 0 
183 3 1 -15.2791 -11.4489 26.7538 0 0 0 
188 2 1 -16.3869 -9.09661 31.517 0 0 0 
186 3 1 -7.14213 -10.3798 35.4212 0 0 0 
182 2 1 -12.7952 -9.61442 24.5886 0 0 0 
187 1 1 -12.9313 -9.6218 31.4226 0 0 0 
184 1 1 -10.3803 -9.59604 28.6674 0 0 0 
185 2 1 -8.09126 -9.68413 32.1731 0 0 0 
190 1 1 -14.0447 -9.31551 35.0138 0 0 0 
192 3 1 -21.4981 -8.6055 34.2554 0 0 0 
191 2 1 -18.0768 -9.46886 35.5567 0 0 0 
194 2 1 -17.3412 -8.70627 41.4045 0 0 0 
193 1 1 -14.0953 -8.67088 38.8945 0 0 0 
196 1 1 -12.9066 -7.83747 42.4763 0 0 0 
199 1 1 -11.81 -6.49048 45.9843 0 0 0 
195 3 1 -20.7783 -7.79234 40.3443 0 0 0 
200 2 1 -14.1725 -6.95721 48.8553 0 0 0 
197 2 1 -8.8264 -7.87382 42.7527 0 0 0 
198 3 1 -5.46824 -8.57817 41.8122 0 0 0 
207 3 1 -14.6537 -0.633266 56.0602 0 0 0 
201 3 1 -17.2151 -6.80416 51.1444 0 0 0 
206 2 1 -11.3663 -2.39883 55.1531 0 0 0 
203 2 1 -6.72505 -2.65154 47.6484 0 0 0 
204 3 1 -8.68161 0.519168 46.9117 0 0 0 
202 1 1 -10.0247 -4.87365 48.9273 0 0 0 
205 1 1 -8.56705 -3.36919 52.3596 0 0 0 
208 1 1 -6.30294 -2.30322 55.3209 0 0 0 
211 1 1 -3.56285 -1.57097 58.0355 0 0 0 
214 1 1 -0.394297 0.769014 58.924 0 0 0 
217 1 1 2.18953 3.80625 59.1777 0 0 0 
219 3 1 3.79007 7.26781 52.7849 0 0 0 
218 2 1 3.712 5.70858 55.9305 0 0 0 
225 3 1 13.5219 9.05007 55.6418 0 0 0 
228 3 1 13.9873 16.354 55.6004 0 0 0 
210 3 1 -6.44566 -7.48724 60.2062 0 0 0 
209 2 1 -5.39021 -5.32171 57.778 0 0 0 
213 3 1 -2.81848 -5.73017 63.7508 0 0 0 
212 2 1 -2.18266 -3.20207 61.4086 0 0 0 
215 2 1 1.3206 0.510943 62.5827 0 0 0 
216 3 1 0.473149 1.69284 66.1896 0 0 0 
224 2 1 10.3478 9.81193 57.5108 0 0 0 
220 1 1 4.40373 6.95096 59.9876 0 0 0 
223 1 1 7.04176 9.85798 59.7837 0 0 0 
221 2 1 4.47062 8.88317 63.5801 0 0 0 
222 3 1 3.40296 11.4873 65.7682 0 0 0 
226 1 1 9.09633 13.1315 60.1228 0 0 0 
231 3 1 7.80523 17.6435 68.3491 0 0 0 
230 2 1 8.18563 17.7675 64.5586 0 0 0 
229 1 1 10.5768 16.5126 61.3765 0 0 0 
227 2 1 10.5686 14.8467 56.7198 0 0 0 
232 1 1 11.1867 20.1109 62.5977 0 0 0 
233 2 1 12.7118 22.3026 59.569 0 0 0 
234 3 1 13.016 24.2346 56.3941 0 0 0 
235 1 1 11.5515 23.534 64.3325 0 0 0 
237 3 1 14.8408 28.1044 59.3798 0 0 0 
244 1 1 8.91107 31.6069 71.8552 0 0 0 
247 1 1 6.78316 33.0789 74.7091 0 0 0 
245 2 1 10.6608 34.6117 72.6048 0 0 0 
246 3 1 13.876 36.4936 73.5926 0 0 0 
250 1 1 4.31379 34.5871 77.3646 0 0 0 
238 1 1 11.2096 26.8731 66.2461 0 0 0 
239 2 1 11.056 30.5619 64.3831 0 0 0 
240 3 1 11.673 32.4946 61.5032 0 0 0 
242 2 1 12.7872 32.5078 69.3953 0 0 0 
241 1 1 10.4215 29.5384 68.9006 0 0 0 
236 2 1 13.9799 26.2739 62.4444 0 0 0 
252 3 1 -2.44141 31.9142 78.0459 0 0 0 
251 2 1 0.708757 33.0486 78.6643 0 0 0 
249 3 1 12.0619 35.928 79.153 0 0 0 
255 3 1 7.94242 43.127 79.6437 0 0 0 
248 2 1 9.19254 34.2855 77.7197 0 0 0 
243 3 1 15.4995 34.5271 68.4032 0 0 0 
254 2 1 5.65461 40.5415 81.4211 0 0 0 
253 1 1 3.68471 37.0599 80.3525 0 0 0 
256 1 1 1.66754 38.7906 83.2811 0 0 0 
257 2 1 3.41522 42.3081 84.5068 0 0 0 
259 1 1 -0.302193 39.8856 86.4357 0 0 0 
260 2 1 -3.71782 38.3968 87.9334 0 0 0 
258 3 1 5.14509 45.703 84.1798 0 0 0 
261 3 1 -6.98416 38.8166 89.3466 0 0 0 
263 2 1 2.0999 44.4072 91.4727 0 0 0 
262 1 1 -0.795824 42.1941 89.6359 0 0 0 
265 1 1 -2.57614 43.8963 92.6847 0 0 0 
264 3 1 5.23889 45.8815 92.1333 0 0 0 
266 2 1 -6.14578 44.4707 94.4748 0 0 0 
267 3 1 -9.78944 43.8221 94.1094 0 0 0 
268 1 1 -2.14862 45.9692 95.7658 0 0 0 
270 3 1 2.14082 51.475 96.684 0 0 0 
269 2 1 0.657602 47.9524 96.2545 0 0 0 
279 3 1 -9.20653 55.3538 104.577 0 0 0 
273 3 1 -9.76498 49.3429 97.8372 0 0 0 
275 2 1 0.539095 52.5134 102.936 0 0 0 
277 1 1 -3.75757 51.0794 105.875 0 0 0 
271 1 1 -2.99366 47.687 99.1747 0 0 0 
274 1 1 -2.73973 49.9974 102.355 0 0 0 
278 2 1 -6.92993 53.1364 105.971 0 0 0 
272 2 1 -6.99936 47.7349 99.6483 0 0 0 
276 3 1 1.01628 55.219 100.74 0 0 0 
280 1 1 -3.81504 52.0087 109.654 0 0 0 
283 1 1 -2.88141 52.837 113.343 0 0 0 
286 1 1 -1.29129 53.6098 116.753 0 0 0 
284 2 1 -5.75327 54.8913 115.387 0 0 0 
285 3 1 -8.35442 57.6298 114.947 0 0 0 
282 3 1 -11.1316 52.6232 111.932 0 0 0 
281 2 1 -7.49543 52.9061 111.057 0 0 0 
288 3 1 -5.60114 56.0407 122.567 0 0 0 
287 2 1 -2.9387 55.2027 119.921 0 0 0 
292 1 1 2.31086 56.1387 123.146 0 0 0 
289 1 1 1.13274 54.5753 119.607 0 0 0 
291 3 1 7.89372 53.7332 116.332 0 0 0 
290 2 1 5.11726 54.6194 118.799 0 0 0 
295 1 1 3.82832 58.3267 126.045 0 0 0 
293 2 1 0.962339 55.0375 126.823 0 0 0 
296 2 1 3.98769 56.9346 129.17 0 0 0 
297 3 1 5.46836 54.4993 131.14 0 0 0 
300 3 1 0.823933 58.9646 135.347 0 0 0 
298 1 1 4.67319 60.8114 128.89 0 0 0 
299 2 1 2.51925 60.9332 132.44 0 0 0 
294 3 1 0.0891944 52.9155 129.903 0 0 0 
302 2 1 6.21409 62.5121 135.144 0 0 0 
301 1 1 6.8567 63.0585 131.358 0 0 0 
305 2 1 8.8624 69.5805 133.441 0 0 0 
304 1 1 9.14503 65.5528 133.251 0 0 0 
307 1 1 11.8071 66.8257 135.826 0 0 0 
310 1 1 14.2469 68.9 137.887 0 0 0 
306 3 1 7.16937 72.225 134.966 0 0 0 
311 2 1 15.1862 72.5115 136.19 0 0 0 
312 3 1 14.0454 75.8798 135.057 0 0 0 
318 3 1 22.3358 78.3795 141.855 0 0 0 
303 3 1 6.85182 62.6212 138.618 0 0 0 
308 2 1 13.1601 65.1193 139.11 0 0 0 
309 3 1 11.8681 63.6193 141.994 0 0 0 
313 1 1 17.3191 69.6912 140.239 0 0 0 
317 2 1 21.6467 75.1548 140.554 0 0 0 
314 2 1 17.7424 68.7335 144.022 0 0 0 
315 3 1 19.614 67.9905 147.11 0 0 0 
316 1 1 20.8764 71.258 141.075 0 0 0 
319 1 1 24.5293 71.6757 142.183 0 0 0 
325 1 1 32.0032 71.8982 141.92 0 0 0 
322 1 1 28.3694 72.1093 142.804 0 0 0 
327 3 1 33.3131 66.5917 136.734 0 0 0 
326 2 1 33.5078 68.9228 139.701 0 0 0 
332 2 1 41.3388 70.8259 141.985 0 0 0 
331 1 1 39.4965 73.9625 142.553 0 0 0 
334 1 1 43.1738 75.0296 143.183 0 0 0 
321 3 1 24.3446 75.4373 148.503 0 0 0 
320 2 1 25.2297 73.5591 145.59 0 0 0 
323 2 1 29.9954 74.0225 146.02 0 0 0 
324 3 1 30.2104 77.3656 147.189 0 0 0 
328 1 1 35.6125 73.2185 142.497 0 0 0 
329 2 1 36.2534 76.6062 144.163 0 0 0 
330 3 1 38.2849 79.7296 144.994 0 0 0 
336 3 1 47.7409 79.3723 138.609 0 0 0 
335 2 1 45.3923 77.7135 141.269 0 0 0 
333 3 1 42.5906 67.5405 142.109 0 0 0 
ITEM: TIMESTEP
200000
ITEM: NUMBER OF ATOMS
336
ITEM: BOX BOUNDS pp pp pp
-216.913 216.913
-216.913 216.913
-216.913 216.913
ITEM: ATOMS id type mol x y z ix iy iz 
2 2 1 -46.282 -64.2942 -163.619 0 0 0 
3 3 1 -42.8967 -65.1155 -163.156 0 0 0 
7 1 1 -43.6803 -61.2262 -157.757 0 0 0 
11 2 1 -43.8318 -67.4241 -153.716 0 0 0 
10 1 1 -43.0125 -63.5931 -154.824 0 0 0 
1 1 1 -45.4444 -60.455 -164.968 0 0 0 
4 1 1 -44.8339 -60.4696 -161.266 0 0 0 
6 3 1 -43.1686 -53.5795 -159.214 0 0 0 
5 2 1 -43.652 -57.1921 -159.602 0 0 0 
12 3 1 -44.1309 -71.0672 -153.812 0 0 0 
18 3 1 -41.881 -72.4553 -146.178 0 0 0 
17 2 1 -40.3382 -69.2307 -145.969 0 0 0 
16 1 1 -40.298 -65.4223 -147.646 0 0 0 
13 1 1 -41.5869 -63.9946 -151.15 0 0 0 
14 2 1 -41.2757 -60.45 -149.043 0 0 0 
15 3 1 -39.4477 -59.056 -146.053 0 0 0 
19 1 1 -38.0684 -65.3246 -144.372 0 0 0 
8 2 1 -41.3833 -59.1337 -155.035 0 0 0 
9 3 1 -37.9829 -58.8506 -153.797 0 0 0 
27 3 1 -29.5773 -66.6116 -135.702 0 0 0 
20 2 1 -35.0114 -67.446 -142.798 0 0 0 
21 3 1 -31.5978 -67.2399 -141.36 0 0 0 
22 1 1 -36.9041 -63.3284 -141.237 0 0 0 
26 2 1 -32.6066 -64.4317 -135.518 0 0 0 
25 1 1 -34.9212 -62.2604 -138.003 0 0 0 
23 2 1 -37.4053 -59.2926 -140.308 0 0 0 
28 1 1 -33.1861 -59.8001 -135.406 0 0 0 
29 2 1 -33.7312 -55.8588 -135.918 0 0 0 
24 3 1 -37.4182 -55.7859 -140.289 0 0 0 
33 3 1 -27.9511 -62.3435 -128.303 0 0 0 
39 3 1 -33.0327 -54.2249 -119.654 0 0 0 
32 2 1 -29.8971 -60.1128 -130.243 0 0 0 
31 1 1 -31.2505 -58.0378 -132.646 0 0 0 
34 1 1 -29.9091 -55.7895 -129.937 0 0 0 
35 2 1 -26.9313 -52.979 -130.481 0 0 0 
37 1 1 -29.8701 -54.0562 -126.523 0 0 0 
30 3 1 -34.6199 -52.191 -136.308 0 0 0 
36 3 1 -25.305 -50.6507 -133.2 0 0 0 
38 2 1 -32.469 -54.5177 -123.411 0 0 0 
40 1 1 -28.3919 -51.9191 -123.606 0 0 0 
45 3 1 -32.539 -48.5962 -116.913 0 0 0 
44 2 1 -28.8589 -49.4098 -116.847 0 0 0 
43 1 1 -26.9635 -50.3572 -120.33 0 0 0 
46 1 1 -24.0211 -49.0375 -118.192 0 0 0 
41 2 1 -24.5426 -50.8712 -124.063 0 0 0 
42 3 1 -22.5162 -48.0824 -124.691 0 0 0 
47 2 1 -20.7276 -49.2683 -120.212 0 0 0 
48 3 1 -17.3711 -48.3322 -121.775 0 0 0 
51 3 1 -25.8317 -48.5953 -108.727 0 0 0 
49 1 1 -21.7259 -48.3139 -115.292 0 0 0 
50 2 1 -23.5275 -48.8103 -111.637 0 0 0 
52 1 1 -18.8568 -48.2797 -112.705 0 0 0 
55 1 1 -16.6012 -48.5474 -109.406 0 0 0 
58 1 1 -14.4266 -47.3715 -106.568 0 0 0 
53 2 1 -15.4962 -46.9084 -113.599 0 0 0 
54 3 1 -12.4977 -45.0569 -112.168 0 0 0 
59 2 1 -10.5233 -46.4317 -107.505 0 0 0 
60 3 1 -7.74249 -44.325 -109.045 0 0 0 
57 3 1 -14.7662 -51.1181 -104.349 0 0 0 
56 2 1 -17.2843 -50.68 -106.794 0 0 0 
62 2 1 -13.8588 -47.9443 -100.318 0 0 0 
63 3 1 -15.3438 -50.3613 -98.1438 0 0 0 
61 1 1 -12.649 -46.3328 -103.228 0 0 0 
64 1 1 -10.9081 -44.3815 -100.203 0 0 0 
65 2 1 -8.34945 -41.2363 -100.167 0 0 0 