ITEM: TIMESTEP
0
ITEM: NUMBER OF ATOMS
342
ITEM: BOX BOUNDS pp pp pp
-218.196 218.196
-218.196 218.196
-218.196 218.196
ITEM: ATOMS id type mol x y z ix iy iz 
1 1 1 -33.1361 -41.064 -199.307 0 0 0 
2 2 1 -36.5256 -41.1225 -197.435 0 0 0 
3 3 1 -39.9717 -41.8284 -196.193 0 0 0 
9 3 1 -38.8006 -40.3581 -189.156 0 0 0 
4 1 1 -32.5506 -40.3288 -195.788 0 0 0 
5 2 1 -29.0231 -41.268 -196.686 0 0 0 
6 3 1 -25.4359 -42.2389 -195.861 0 0 0 
7 1 1 -31.965 -39.5937 -192.27 0 0 0 
8 2 1 -35.3546 -39.6521 -190.399 0 0 0 
10 1 1 -31.3795 -38.8585 -188.752 0 0 0 
11 2 1 -27.852 -39.7977 -189.649 0 0 0 
12 3 1 -24.2648 -40.7685 -188.824 0 0 0 
15 3 1 -37.6296 -38.8877 -182.12 0 0 0 
13 1 1 -30.794 -38.1233 -185.233 0 0 0 
14 2 1 -34.1835 -38.1818 -183.362 0 0 0 
16 1 1 -30.2084 -37.3882 -181.715 0 0 0 
17 2 1 -26.681 -38.3274 -182.613 0 0 0 
19 1 1 -29.6229 -36.653 -178.196 0 0 0 
18 3 1 -23.0938 -39.2982 -181.787 0 0 0 
21 3 1 -36.4585 -37.4174 -175.083 0 0 0 
20 2 1 -33.0124 -36.7115 -176.325 0 0 0 
22 1 1 -29.0374 -35.9178 -174.678 0 0 0 
23 2 1 -25.5099 -36.857 -175.576 0 0 0 
27 3 1 -35.2874 -35.9471 -168.046 0 0 0 
24 3 1 -21.9227 -37.8279 -174.75 0 0 0 
30 3 1 -20.7516 -36.3576 -167.714 0 0 0 
25 1 1 -28.4519 -35.1827 -171.16 0 0 0 
26 2 1 -31.8414 -35.2412 -169.288 0 0 0 
28 1 1 -27.8663 -34.4475 -167.641 0 0 0 
29 2 1 -24.3389 -35.3867 -168.539 0 0 0 
31 1 1 -27.2808 -33.7124 -164.123 0 0 0 
32 2 1 -30.6703 -33.7708 -162.251 0 0 0 
33 3 1 -34.1164 -34.4768 -161.009 0 0 0 
34 1 1 -26.6953 -32.9772 -160.604 0 0 0 
35 2 1 -23.1678 -33.9164 -161.502 0 0 0 
36 3 1 -19.5806 -34.8872 -160.677 0 0 0 
37 1 1 -26.1097 -32.242 -157.086 0 0 0 
38 2 1 -29.4992 -32.3005 -155.215 0 0 0 
39 3 1 -32.9453 -33.0064 -153.972 0 0 0 
40 1 1 -25.5242 -31.5069 -153.568 0 0 0 
44 2 1 -28.3282 -30.8302 -148.178 0 0 0 
41 2 1 -21.9967 -32.446 -154.465 0 0 0 
42 3 1 -18.4095 -33.4169 -153.64 0 0 0 
43 1 1 -24.9387 -30.7717 -150.049 0 0 0 
47 2 1 -20.8257 -30.9757 -147.429 0 0 0 
45 3 1 -31.7742 -31.5361 -146.936 0 0 0 
50 2 1 -27.1571 -29.3599 -141.141 0 0 0 
51 3 1 -30.6032 -30.0658 -139.899 0 0 0 
46 1 1 -24.3531 -30.0365 -146.531 0 0 0 
48 3 1 -17.2385 -31.9466 -146.603 0 0 0 
49 1 1 -23.7676 -29.3014 -143.012 0 0 0 
52 1 1 -23.1821 -28.5662 -139.494 0 0 0 
53 2 1 -19.6546 -29.5054 -140.392 0 0 0 
54 3 1 -16.0674 -30.4763 -139.566 0 0 0 
56 2 1 -25.9861 -27.8895 -134.104 0 0 0 
57 3 1 -29.4321 -28.5954 -132.862 0 0 0 
55 1 1 -22.5965 -27.831 -135.976 0 0 0 
58 1 1 -22.011 -27.0959 -132.457 0 0 0 
59 2 1 -18.4836 -28.0351 -133.355 0 0 0 
61 1 1 -21.4255 -26.3607 -128.939 0 0 0 
62 2 1 -24.815 -26.4192 -127.067 0 0 0 
60 3 1 -14.8963 -29.0059 -132.53 0 0 0 
63 3 1 -28.2611 -27.1251 -125.825 0 0 0 
69 3 1 -27.09 -25.6548 -118.788 0 0 0 
64 1 1 -20.84 -25.6256 -125.42 0 0 0 
65 2 1 -17.3125 -26.5647 -126.318 0 0 0 
66 3 1 -13.7253 -27.5356 -125.493 0 0 0 
72 3 1 -12.5542 -26.0653 -118.456 0 0 0 
67 1 1 -20.2544 -24.8904 -121.902 0 0 0 
68 2 1 -23.6439 -24.9489 -120.031 0 0 0 
70 1 1 -19.6689 -24.1552 -118.384 0 0 0 
71 2 1 -16.1414 -25.0944 -119.281 0 0 0 
75 3 1 -25.9189 -24.1845 -111.752 0 0 0 
73 1 1 -19.0834 -23.4201 -114.865 0 0 0 
74 2 1 -22.4729 -23.4785 -112.994 0 0 0 
76 1 1 -18.4978 -22.6849 -111.347 0 0 0 
79 1 1 -17.9123 -21.9497 -107.828 0 0 0 
77 2 1 -14.9704 -23.6241 -112.245 0 0 0 
78 3 1 -11.3831 -24.595 -111.419 0 0 0 
80 2 1 -21.3018 -22.0082 -105.957 0 0 0 
81 3 1 -24.7479 -22.7141 -104.715 0 0 0 
82 1 1 -17.3268 -21.2146 -104.31 0 0 0 
85 1 1 -16.7412 -20.4794 -100.792 0 0 0 
86 2 1 -20.1307 -20.5379 -98.9203 0 0 0 
87 3 1 -23.5768 -21.2438 -97.6781 0 0 0 
88 1 1 -16.1557 -19.7443 -97.2732 0 0 0 
83 2 1 -13.7993 -22.1538 -105.208 0 0 0 
84 3 1 -10.2121 -23.1246 -104.382 0 0 0 
89 2 1 -12.6282 -20.6834 -98.1709 0 0 0 
90 3 1 -9.04103 -21.6543 -97.3458 0 0 0 
91 1 1 -15.5702 -19.0091 -93.7548 0 0 0 
92 2 1 -18.9597 -19.0676 -91.8835 0 0 0 
93 3 1 -22.4058 -19.7735 -90.6412 0 0 0 
94 1 1 -14.9846 -18.2739 -90.2364 0 0 0 
95 2 1 -11.4572 -19.2131 -91.1341 0 0 0 
96 3 1 -7.86996 -20.184 -90.309 0 0 0 
97 1 1 -14.3991 -17.5388 -86.718 0 0 0 
98 2 1 -17.7886 -17.5972 -84.8467 0 0 0 
99 3 1 -21.2347 -18.3032 -83.6044 0 0 0 
104 2 1 -16.6176 -16.1269 -77.8099 0 0 0 
105 3 1 -20.0636 -16.8328 -76.5677 0 0 0 
100 1 1 -13.8136 -16.8036 -83.1996 0 0 0 
101 2 1 -10.2861 -17.7428 -84.0973 0 0 0 
102 3 1 -6.6989 -18.7136 -83.2722 0 0 0 
103 1 1 -13.228 -16.0684 -79.6812 0 0 0 
106 1 1 -12.6425 -15.3333 -76.1628 0 0 0 
107 2 1 -9.11506 -16.2724 -77.0605 0 0 0 
108 3 1 -5.52784 -17.2433 -76.2353 0 0 0 
111 3 1 -18.8926 -15.3625 -69.5309 0 0 0 
114 3 1 -4.35678 -15.773 -69.1985 0 0 0 
110 2 1 -15.4465 -14.6566 -70.7731 0 0 0 
109 1 1 -12.057 -14.5981 -72.6444 0 0 0 
112 1 1 -11.4715 -13.8629 -69.126 0 0 0 
113 2 1 -7.944 -14.8021 -70.0237 0 0 0 
117 3 1 -17.7215 -13.8922 -62.4941 0 0 0 
115 1 1 -10.8859 -13.1278 -65.6076 0 0 0 
116 2 1 -14.2754 -13.1863 -63.7363 0 0 0 
118 1 1 -10.3004 -12.3926 -62.0892 0 0 0 
119 2 1 -6.77294 -13.3318 -62.9869 0 0 0 
121 1 1 -9.71487 -11.6575 -58.5708 0 0 0 
122 2 1 -13.1044 -11.7159 -56.6995 0 0 0 
125 2 1 -5.60187 -11.8615 -55.9501 0 0 0 
120 3 1 -3.18572 -14.3027 -62.1617 0 0 0 
123 3 1 -16.5505 -12.4218 -55.4573 0 0 0 
129 3 1 -15.3794 -10.9515 -48.4205 0 0 0 
124 1 1 -9.12934 -10.9223 -55.0524 0 0 0 
127 1 1 -8.54381 -10.1871 -51.534 0 0 0 
128 2 1 -11.9333 -10.2456 -49.6627 0 0 0 
130 1 1 -7.95828 -9.45196 -48.0156 0 0 0 
126 3 1 -2.01466 -12.8323 -55.1249 0 0 0 
131 2 1 -4.43081 -10.3911 -48.9133 0 0 0 
132 3 1 -0.843596 -11.362 -48.0881 0 0 0 
133 1 1 -7.37275 -8.7168 -44.4972 0 0 0 
134 2 1 -10.7623 -8.77528 -42.6259 0 0 0 
135 3 1 -14.2083 -9.4812 -41.3836 0 0 0 
136 1 1 -6.78722 -7.98163 -40.9788 0 0 0 
139 1 1 -6.20169 -7.24647 -37.4604 0 0 0 
140 2 1 -9.59121 -7.30495 -35.5891 0 0 0 
137 2 1 -3.25975 -8.92082 -41.8765 0 0 0 
138 3 1 0.327464 -9.89168 -41.0513 0 0 0 
141 3 1 -13.0373 -8.01088 -34.3468 0 0 0 
142 1 1 -5.61616 -6.51131 -33.942 0 0 0 
146 2 1 -8.42014 -5.83463 -28.5523 0 0 0 
147 3 1 -11.8662 -6.54055 -27.31 0 0 0 
143 2 1 -2.08869 -7.45049 -34.8397 0 0 0 
144 3 1 1.49853 -8.42135 -34.0145 0 0 0 
145 1 1 -5.03063 -5.77614 -30.4236 0 0 0 
149 2 1 -0.91763 -5.98017 -27.8029 0 0 0 
150 3 1 2.66959 -6.95103 -26.9778 0 0 0 
148 1 1 -4.4451 -5.04098 -26.9052 0 0 0 
156 3 1 3.84065 -5.4807 -19.9409 0 0 0 
152 2 1 -7.24908 -4.3643 -21.5155 0 0 0 
153 3 1 -10.6951 -5.07022 -20.2732 0 0 0 
151 1 1 -3.85956 -4.30582 -23.3868 0 0 0 
154 1 1 -3.27403 -3.57065 -19.8684 0 0 0 
155 2 1 0.253431 -4.50984 -20.7661 0 0 0 
157 1 1 -2.6885 -2.83549 -16.35 0 0 0 
158 2 1 -6.07802 -2.89397 -14.4787 0 0 0 
159 3 1 -9.52409 -3.5999 -13.2364 0 0 0 
165 3 1 -8.35303 -2.12957 -6.19964 0 0 0 
160 1 1 -2.10297 -2.10033 -12.8316 0 0 0 
161 2 1 1.42449 -3.03951 -13.7293 0 0 0 
162 3 1 5.01171 -4.01037 -12.9041 0 0 0 
163 1 1 -1.51744 -1.36516 -9.31319 0 0 0 
164 2 1 -4.90696 -1.42365 -7.44193 0 0 0 
166 1 1 -0.931911 -0.629998 -5.79479 0 0 0 
167 2 1 2.59555 -1.56918 -6.69249 0 0 0 
168 3 1 6.18277 -2.54004 -5.86735 0 0 0 
171 3 1 -7.18197 -0.659241 0.837158 0 0 0 
169 1 1 -0.34638 0.105164 -2.27638 0 0 0 
170 2 1 -3.7359 0.046681 -0.405124 0 0 0 
172 1 1 0.23915 0.840328 1.24202 0 0 0 
173 2 1 3.76661 -0.098857 0.344313 0 0 0 
175 1 1 0.82468 1.57549 4.76042 0 0 0 
174 3 1 7.35383 -1.06972 1.16945 0 0 0 
177 3 1 -6.01091 0.811085 7.87396 0 0 0 
176 2 1 -2.56484 1.51701 6.63168 0 0 0 
178 1 1 1.41021 2.31066 8.27882 0 0 0 
179 2 1 4.93768 1.37147 7.38111 0 0 0 
181 1 1 1.99574 3.04582 11.7972 0 0 0 
182 2 1 -1.39377 2.98733 13.6685 0 0 0 
183 3 1 -4.83985 2.28141 14.9108 0 0 0 
180 3 1 8.52489 0.400609 8.20626 0 0 0 
185 2 1 6.10874 2.8418 14.4179 0 0 0 
184 1 1 2.58127 3.78098 15.3156 0 0 0 
187 1 1 3.1668 4.51615 18.834 0 0 0 
188 2 1 -0.222713 4.45766 20.7053 0 0 0 
189 3 1 -3.66878 3.75174 21.9476 0 0 0 
186 3 1 9.69595 1.87094 15.2431 0 0 0 
191 2 1 7.2798 4.31212 21.4547 0 0 0 
192 3 1 10.867 3.34126 22.2798 0 0 0 
190 1 1 3.75233 5.25131 22.3524 0 0 0 
198 3 1 12.0381 4.81159 29.3167 0 0 0 
193 1 1 4.33786 5.98647 25.8708 0 0 0 
194 2 1 0.948347 5.92799 27.7421 0 0 0 
195 3 1 -2.49772 5.22207 28.9844 0 0 0 
196 1 1 4.9234 6.72164 29.3892 0 0 0 
200 2 1 2.11941 7.39832 34.7789 0 0 0 
197 2 1 8.45086 5.78245 28.4915 0 0 0 
199 1 1 5.50893 7.4568 32.9076 0 0 0 
201 3 1 -1.32666 6.69239 36.0212 0 0 0 
206 2 1 3.29047 8.86864 41.8157 0 0 0 
207 3 1 -0.155599 8.16272 43.058 0 0 0 
202 1 1 6.09446 8.19196 36.426 0 0 0 
203 2 1 9.62192 7.25278 35.5283 0 0 0 
204 3 1 13.2091 6.28192 36.3535 0 0 0 
205 1 1 6.67999 8.92713 39.9444 0 0 0 
208 1 1 7.26552 9.66229 43.4628 0 0 0 
209 2 1 10.793 8.72311 42.5651 0 0 0 
210 3 1 14.3802 7.75224 43.3903 0 0 0 
212 2 1 4.46153 10.339 48.8525 0 0 0 
213 3 1 1.01546 9.63305 50.0948 0 0 0 
211 1 1 7.85105 10.3974 46.9812 0 0 0 
214 1 1 8.43658 11.1326 50.4996 0 0 0 
215 2 1 11.964 10.1934 49.6019 0 0 0 
217 1 1 9.02211 11.8678 54.018 0 0 0 
216 3 1 15.5513 9.22257 50.4271 0 0 0 
219 3 1 2.18652 11.1034 57.1316 0 0 0 
225 3 1 3.35758 12.5737 64.1684 0 0 0 
218 2 1 5.63259 11.8093 55.8893 0 0 0 
220 1 1 9.60764 12.6029 57.5364 0 0 0 
221 2 1 13.1351 11.6638 56.6387 0 0 0 
223 1 1 10.1932 13.3381 61.0548 0 0 0 
224 2 1 6.80365 13.2796 62.9261 0 0 0 
226 1 1 10.7787 14.0733 64.5732 0 0 0 
227 2 1 14.3062 13.1341 63.6755 0 0 0 
222 3 1 16.7223 10.6929 57.4639 0 0 0 
228 3 1 17.8934 12.1632 64.5007 0 0 0 
231 3 1 4.52865 14.044 71.2052 0 0 0 
229 1 1 11.3642 14.8084 68.0916 0 0 0 
230 2 1 7.97472 14.75 69.9629 0 0 0 
233 2 1 15.4772 14.6044 70.7123 0 0 0 
234 3 1 19.0644 13.6335 71.5375 0 0 0 
232 1 1 11.9498 15.5436 71.61 0 0 0 
235 1 1 12.5353 16.2788 75.1284 0 0 0 
240 3 1 20.2355 15.1039 78.5743 0 0 0 
236 2 1 9.14578 16.2203 76.9997 0 0 0 
237 3 1 5.69971 15.5144 78.242 0 0 0 
238 1 1 13.1208 17.0139 78.6468 0 0 0 
241 1 1 13.7064 17.7491 82.1652 0 0 0 
242 2 1 10.3168 17.6906 84.0365 0 0 0 
243 3 1 6.87077 16.9847 85.2788 0 0 0 
244 1 1 14.2919 18.4842 85.6836 0 0 0 
239 2 1 16.6483 16.0747 77.7491 0 0 0 
245 2 1 17.8194 17.5451 84.7859 0 0 0 
246 3 1 21.4066 16.5742 85.6111 0 0 0 
247 1 1 14.8774 19.2194 89.202 0 0 0 
248 2 1 11.4879 19.1609 91.0733 0 0 0 
249 3 1 8.04183 18.455 92.3156 0 0 0 
250 1 1 15.4629 19.9546 92.7204 0 0 0 
251 2 1 18.9904 19.0154 91.8227 0 0 0 
252 3 1 22.5776 18.0445 92.6479 0 0 0 
253 1 1 16.0485 20.6897 96.2388 0 0 0 
254 2 1 12.659 20.6313 98.1101 0 0 0 
255 3 1 9.21289 19.9253 99.3524 0 0 0 
260 2 1 13.83 22.1016 105.147 0 0 0 
261 3 1 10.384 21.3957 106.389 0 0 0 
256 1 1 16.634 21.4249 99.7572 0 0 0 
257 2 1 20.1615 20.4857 98.8595 0 0 0 
258 3 1 23.7487 19.5149 99.6847 0 0 0 
259 1 1 17.2195 22.1601 103.276 0 0 0 
263 2 1 21.3325 21.956 105.896 0 0 0 
266 2 1 15.0011 23.5719 112.184 0 0 0 
267 3 1 11.555 22.866 113.426 0 0 0 
262 1 1 17.8051 22.8952 106.794 0 0 0 
264 3 1 24.9198 20.9852 106.721 0 0 0 
265 1 1 18.3906 23.6304 110.312 0 0 0 
268 1 1 18.9761 24.3656 113.831 0 0 0 
269 2 1 22.5036 23.4264 112.933 0 0 0 
270 3 1 26.0908 22.4555 113.758 0 0 0 
273 3 1 12.7261 24.3363 120.463 0 0 0 
271 1 1 19.5617 25.1007 117.349 0 0 0 
272 2 1 16.1721 25.0422 119.22 0 0 0 
275 2 1 23.6747 24.8967 119.97 0 0 0 
276 3 1 27.2619 23.9258 120.795 0 0 0 
274 1 1 20.1472 25.8359 120.868 0 0 0 
277 1 1 20.7327 26.571 124.386 0 0 0 
278 2 1 17.3432 26.5126 126.257 0 0 0 
279 3 1 13.8971 25.8066 127.499 0 0 0 
285 3 1 15.0682 27.277 134.536 0 0 0 
280 1 1 21.3182 27.3062 127.904 0 0 0 
281 2 1 24.8457 26.367 127.007 0 0 0 
283 1 1 21.9038 28.0414 131.423 0 0 0 
284 2 1 18.5143 27.9829 133.294 0 0 0 
286 1 1 22.4893 28.7765 134.941 0 0 0 
282 3 1 28.4329 25.3962 127.832 0 0 0 
287 2 1 26.0168 27.8374 134.043 0 0 0 
288 3 1 29.604 26.8665 134.869 0 0 0 
289 1 1 23.0748 29.5117 138.46 0 0 0 
290 2 1 19.6853 29.4532 140.331 0 0 0 
291 3 1 16.2393 28.7473 141.573 0 0 0 
292 1 1 23.6604 30.2469 141.978 0 0 0 
295 1 1 24.2459 30.982 145.496 0 0 0 
293 2 1 27.1878 29.3077 141.08 0 0 0 
294 3 1 30.7751 28.3368 141.905 0 0 0 
296 2 1 20.8564 30.9235 147.368 0 0 0 
297 3 1 17.4103 30.2176 148.61 0 0 0 
298 1 1 24.8314 31.7172 149.015 0 0 0 
302 2 1 22.0275 32.3939 154.405 0 0 0 
303 3 1 18.5814 31.688 155.647 0 0 0 
299 2 1 28.3589 30.778 148.117 0 0 0 
300 3 1 31.9461 29.8072 148.942 0 0 0 
301 1 1 25.417 32.4524 152.533 0 0 0 
304 1 1 26.0025 33.1875 156.052 0 0 0 
305 2 1 29.53 32.2483 155.154 0 0 0 
306 3 1 33.1172 31.2775 155.979 0 0 0 
308 2 1 23.1985 33.8642 161.441 0 0 0 
309 3 1 19.7524 33.1583 162.684 0 0 0 
307 1 1 26.588 33.9227 159.57 0 0 0 
310 1 1 27.1736 34.6579 163.088 0 0 0 
311 2 1 30.701 33.7187 162.191 0 0 0 
312 3 1 34.2882 32.7478 163.016 0 0 0 
313 1 1 27.7591 35.393 166.607 0 0 0 
314 2 1 24.3696 35.3345 168.478 0 0 0 
315 3 1 20.9235 34.6286 169.72 0 0 0 
317 2 1 31.8721 35.189 169.227 0 0 0 
318 3 1 35.4593 34.2181 170.053 0 0 0 
321 3 1 22.0946 36.0989 176.757 0 0 0 
316 1 1 28.3446 36.1282 170.125 0 0 0 
319 1 1 28.9302 36.8633 173.644 0 0 0 
320 2 1 25.5406 36.8049 175.515 0 0 0 
322 1 1 29.5157 37.5985 177.162 0 0 0 
323 2 1 33.0431 36.6593 176.264 0 0 0 
324 3 1 36.6304 35.6885 177.089 0 0 0 
327 3 1 23.2656 37.5693 183.794 0 0 0 
325 1 1 30.1012 38.3337 180.68 0 0 0 
326 2 1 26.7117 38.2752 182.552 0 0 0 
328 1 1 30.6867 39.0688 184.199 0 0 0 
329 2 1 34.2142 38.1296 183.301 0 0 0 
331 1 1 31.2723 39.804 187.717 0 0 0 
330 3 1 37.8014 37.1588 184.126 0 0 0 
333 3 1 24.4367 39.0396 190.831 0 0 0 
332 2 1 27.8828 39.7455 189.589 0 0 0 
334 1 1 31.8578 40.5391 191.236 0 0 0 
335 2 1 35.3853 39.6 190.338 0 0 0 
337 1 1 32.4433 41.2743 194.754 0 0 0 
338 2 1 29.0538 41.2158 196.625 0 0 0 
339 3 1 25.6077 40.5099 197.868 0 0 0 
336 3 1 38.9725 38.6291 191.163 0 0 0 
341 2 1 36.5563 41.0703 197.375 0 0 0 
340 1 1 33.0289 42.0095 198.272 0 0 0 
342 3 1 40.1435 40.0994 198.2 0 0 0 
ITEM: TIMESTEP
100000
ITEM: NUMBER OF ATOMS
342
ITEM: BOX BOUNDS pp pp pp
-218.196 218.196
-218.196 218.196
-218.196 218.196
ITEM: ATOMS id type mol x y z ix iy iz 
4 1 1 -45.0316 -45.2404 -159.383 0 0 0 
7 1 1 -43.903 -46.8743 -156.078 0 0 0 
5 2 1 -45.3541 -49.2199 -160.49 0 0 0 
6 3 1 -47.4145 -52.542 -160.19 0 0 0 
2 2 1 -44.0579 -40.6174 -158.259 0 0 0 
1 1 1 -45.6932 -42.0118 -161.689 0 0 0 
3 3 1 -42.826 -37.3933 -156.489 0 0 0 
12 3 1 -48.3414 -55.2558 -153.048 0 0 0 
15 3 1 -45.1664 -57.81 -146.968 0 0 0 
8 2 1 -43.1879 -44.4359 -152.987 0 0 0 
10 1 1 -43.8996 -49.1769 -153.006 0 0 0 
11 2 1 -45.3602 -53.0757 -153.399 0 0 0 
13 1 1 -43.3171 -50.517 -149.359 0 0 0 
14 2 1 -44.0537 -54.3497 -148.013 0 0 0 
16 1 1 -42.5371 -50.2074 -145.542 0 0 0 
9 3 1 -41.1729 -43.0787 -150.145 0 0 0 
17 2 1 -39.7293 -48.2146 -144.869 0 0 0 
19 1 1 -42.7372 -50.3791 -141.692 0 0 0 
22 1 1 -42.6302 -51.1645 -137.803 0 0 0 
23 2 1 -43.009 -48.4263 -135.879 0 0 0 
18 3 1 -36.9752 -45.6345 -145.812 0 0 0 
21 3 1 -47.5344 -46.0374 -142.318 0 0 0 
20 2 1 -44.6281 -47.7734 -140.469 0 0 0 
24 3 1 -42.9662 -44.8463 -135.591 0 0 0 
30 3 1 -47.07 -59.9895 -130.234 0 0 0 
33 3 1 -41.1915 -59.105 -120.716 0 0 0 
25 1 1 -42.4985 -52.4563 -134.125 0 0 0 
28 1 1 -42.2354 -54.5897 -130.918 0 0 0 
29 2 1 -43.773 -57.978 -129.58 0 0 0 
32 2 1 -41.0701 -57.3248 -124.083 0 0 0 
26 2 1 -41.7938 -49.3731 -131.514 0 0 0 
31 1 1 -40.791 -54.7796 -127.224 0 0 0 
27 3 1 -38.6197 -47.9692 -131.274 0 0 0 
34 1 1 -38.581 -53.4059 -124.388 0 0 0 
37 1 1 -35.8261 -51.8972 -122.046 0 0 0 
42 3 1 -26.6966 -47.4049 -123.306 0 0 0 
36 3 1 -41.1527 -54.5582 -117.385 0 0 0 
35 2 1 -39.507 -53.3855 -120.347 0 0 0 
38 2 1 -36.9906 -50.0466 -118.492 0 0 0 
40 1 1 -32.4588 -50.2123 -120.629 0 0 0 
39 3 1 -38.5829 -46.9461 -119.975 0 0 0 
43 1 1 -29.2233 -49.4084 -118.577 0 0 0 
41 2 1 -30.1293 -48.0226 -123.069 0 0 0 
46 1 1 -26.149 -48.0073 -116.735 0 0 0 
47 2 1 -23.4013 -45.6625 -118.744 0 0 0 
49 1 1 -23.3202 -46.8771 -114.192 0 0 0 
48 3 1 -22.396 -44.1829 -121.938 0 0 0 
45 3 1 -29.1565 -49.3171 -111.315 0 0 0 
44 2 1 -30.2567 -48.8571 -114.665 0 0 0 
52 1 1 -19.6595 -45.6795 -114.14 0 0 0 
53 2 1 -17.9258 -44.2065 -117.476 0 0 0 
54 3 1 -15.0744 -46.1546 -119.112 0 0 0 
60 3 1 -12.7074 -49.7437 -105.973 0 0 0 
51 3 1 -22.3568 -47.206 -106.571 0 0 0 
50 2 1 -22.5546 -46.4015 -110.22 0 0 0 
55 1 1 -16.3228 -44.4451 -112.843 0 0 0 
56 2 1 -13.1318 -42.7367 -114.948 0 0 0 
57 3 1 -11.9444 -39.8926 -116.835 0 0 0 
58 1 1 -13.8045 -43.5086 -109.979 0 0 0 
59 2 1 -13.1713 -46.5151 -107.231 0 0 0 
65 2 1 -8.09908 -44.2063 -102.735 0 0 0 
66 3 1 -9.20543 -46.1296 -99.6452 0 0 0 
69 3 1 -1.20132 -45.2561 -99.1564 0 0 0 
63 3 1 -6.70019 -38.62 -112.894 0 0 0 
62 2 1 -8.06952 -40.0239 -109.876 0 0 0 
61 1 1 -10.8679 -42.1652 -107.946 0 0 0 
64 1 1 -8.44266 -41.181 -105.259 0 0 0 
67 1 1 -6.2511 -40.4764 -102.153 0 0 0 
68 2 1 -4.4145 -43.6868 -100.33 0 0 0 
72 3 1 -4.22504 -32.2003 -98.2229 0 0 0 
70 1 1 -4.40387 -38.9581 -99.1915 0 0 0 
71 2 1 -4.39971 -35.8938 -97.3268 0 0 0 
73 1 1 -2.00415 -38.7753 -96.1448 0 0 0 
76 1 1 -0.31316 -37.1805 -93.0655 0 0 0 
77 2 1 -0.644921 -33.2029 -93.4146 0 0 0 
74 2 1 1.16965 -41.261 -95.4868 0 0 0 
79 1 1 0.841954 -35.8535 -89.5759 0 0 0 
75 3 1 4.09314 -43.6391 -96.4065 0 0 0 
80 2 1 3.15326 -38.1995 -87.0583 0 0 0 
81 3 1 3.51204 -40.0045 -84.1019 0 0 0 
78 3 1 0.972766 -30.2268 -94.5003 0 0 0 
83 2 1 0.600701 -29.2622 -88.3516 0 0 0 
84 3 1 2.10699 -25.7478 -88.7739 0 0 0 
82 1 1 1.02692 -33.1674 -86.9482 0 0 0 
85 1 1 1.37205 -31.1127 -83.7379 0 0 0 
86 2 1 1.77939 -33.144 -80.7968 0 0 0 
88 1 1 1.34022 -28.2617 -80.9515 0 0 0 
89 2 1 1.0554 -24.3792 -82.2934 0 0 0 
87 3 1 2.11126 -36.0558 -78.3571 0 0 0 
90 3 1 -1.36419 -22.029 -84.0288 0 0 0 
91 1 1 1.74818 -26.3583 -77.5509 0 0 0 
94 1 1 2.42636 -25.3078 -73.7511 0 0 0 
96 3 1 1.68013 -29.5671 -68.1293 0 0 0 
95 2 1 2.65176 -27.8649 -71.0858 0 0 0 
93 3 1 -0.900356 -19.4255 -78.2269 0 0 0 
92 2 1 -0.23555 -22.9202 -77.5646 0 0 0 
97 1 1 2.57478 -23.2771 -70.3772 0 0 0 
98 2 1 1.04521 -19.5192 -70.6708 0 0 0 
100 1 1 3.68897 -21.6625 -67.0342 0 0 0 
102 3 1 3.47626 -26.3069 -61.2914 0 0 0 
99 3 1 1.12612 -15.816 -70.3164 0 0 0 
101 2 1 4.15386 -23.6725 -63.588 0 0 0 
103 1 1 4.71037 -18.8131 -64.5157 0 0 0 
104 2 1 8.04731 -19.8251 -62.2063 0 0 0 
106 1 1 4.45258 -15.7546 -62.1284 0 0 0 
109 1 1 5.61525 -13.513 -59.1538 0 0 0 
105 3 1 11.609 -19.9201 -61.9931 0 0 0 
107 2 1 3.1464 -11.8595 -62.2616 0 0 0 
108 3 1 3.86007 -8.41867 -61.4518 0 0 0 
114 3 1 -1.58156 -7.86026 -53.6363 0 0 0 
111 3 1 12.1567 -15.9027 -56.0315 0 0 0 
110 2 1 9.38194 -13.9897 -57.5868 0 0 0 
117 3 1 10.4734 -10.1393 -47.039 0 0 0 
112 1 1 5.04174 -11.3389 -55.9644 0 0 0 
115 1 1 5.86644 -9.86972 -52.4051 0 0 0 
113 2 1 1.32701 -10.262 -54.6443 0 0 0 
118 1 1 4.3836 -7.79861 -49.5345 0 0 0 
121 1 1 2.00568 -5.76921 -47.2343 0 0 0 
116 2 1 9.38942 -10.0624 -50.2602 0 0 0 
123 3 1 -3.08932 -5.60069 -44.6527 0 0 0 
122 2 1 -1.8691 -4.48476 -47.6376 0 0 0 
120 3 1 10.0205 -4.37572 -46.2263 0 0 0 
125 2 1 1.91268 -6.65859 -41.2644 0 0 0 
124 1 1 1.1651 -3.80821 -44.1521 0 0 0 
119 2 1 6.87491 -5.47617 -47.4541 0 0 0 
126 3 1 1.44956 -10.0436 -40.0841 0 0 0 
129 3 1 -7.09189 0.331122 -40.9702 0 0 0 
128 2 1 -3.6289 -0.179074 -41.0607 0 0 0 
127 1 1 0.0822248 -1.99422 -41.0448 0 0 0 
130 1 1 -0.558839 -1.13182 -37.3636 0 0 0 
132 3 1 5.93575 0.385292 -33.9452 0 0 0 
135 3 1 -8.1508 3.67481 -32.0453 0 0 0 
134 2 1 -6.02669 1.06175 -33.097 0 0 0 
139 1 1 -4.32363 -1.37188 -26.4748 0 0 0 
141 3 1 -11.6479 -2.31977 -24.9797 0 0 0 
140 2 1 -8.08481 -2.42864 -25.4511 0 0 0 
131 2 1 2.65062 -1.15661 -34.9364 0 0 0 
133 1 1 -2.34737 -0.517515 -33.8388 0 0 0 
136 1 1 -2.8278 -0.890943 -30.0053 0 0 0 
137 2 1 0.726087 0.0174231 -28.3024 0 0 0 
143 2 1 -7.30904 -4.10953 -20.535 0 0 0 
142 1 1 -4.76758 -1.71169 -22.5638 0 0 0 
145 1 1 -4.12869 -1.54245 -18.6147 0 0 0 
146 2 1 -7.18354 -2.73916 -16.3025 0 0 0 
144 3 1 -10.6174 -5.28606 -19.8432 0 0 0 
138 3 1 4.0297 1.75775 -28.5103 0 0 0 
148 1 1 -2.89135 -0.301843 -15.1757 0 0 0 
149 2 1 0.186237 1.45548 -15.0242 0 0 0 
150 3 1 2.31358 2.63581 -12.0398 0 0 0 
147 3 1 -9.52865 -5.1865 -14.6915 0 0 0 
152 2 1 -2.39411 4.66606 -10.5117 0 0 0 
151 1 1 -2.38812 0.641017 -11.5937 0 0 0 
154 1 1 -0.898097 0.756072 -7.96474 0 0 0 
157 1 1 1.26077 -0.118543 -4.94442 0 0 0 
155 2 1 -0.119638 3.6621 -5.20638 0 0 0 
156 3 1 -0.158746 6.99864 -3.21103 0 0 0 
153 3 1 -4.13143 7.71732 -10.0311 0 0 0 
162 3 1 4.44976 -9.43183 -1.73208 0 0 0 
161 2 1 4.04084 -5.97777 -2.71003 0 0 0 
169 1 1 10.3347 -7.66712 4.9573 0 0 0 
170 2 1 14.4335 -8.08022 4.67294 0 0 0 
166 1 1 8.04737 -5.69612 2.49466 0 0 0 
163 1 1 5.89542 -3.48311 0.285177 0 0 0 
167 2 1 5.98601 -9.07484 3.60061 0 0 0 
168 3 1 4.01053 -10.9822 5.92952 0 0 0 
160 1 1 3.45024 -1.94256 -2.22626 0 0 0 
158 2 1 2.79263 2.90236 -2.61843 0 0 0 
159 3 1 5.01096 5.66194 -2.47719 0 0 0 
165 3 1 10.0857 0.650942 4.52884 0 0 0 
164 2 1 7.88943 -1.01096 1.90765 0 0 0 
171 3 1 17.6053 -9.23489 3.22853 0 0 0 
177 3 1 12.0244 -17.1773 13.6139 0 0 0 
172 1 1 11.58 -9.02895 8.3773 0 0 0 
175 1 1 11.6985 -9.7324 12.1968 0 0 0 
178 1 1 11.806 -9.46424 16.1231 0 0 0 
176 2 1 10.8835 -13.6517 13.5928 0 0 0 
174 3 1 17.7381 -13.7328 7.46889 0 0 0 
173 2 1 14.6509 -11.7728 8.51341 0 0 0 
179 2 1 13.9673 -6.58146 17.903 0 0 0 
180 3 1 17.1319 -5.11 18.5614 0 0 0 
183 3 1 16.8732 -6.89254 22.9682 0 0 0 
181 1 1 11.7098 -9.856 20.0032 0 0 0 
184 1 1 11.2117 -11.2572 23.4653 0 0 0 
182 2 1 13.1148 -7.58269 22.5951 0 0 0 
185 2 1 8.96335 -14.3326 25.1495 0 0 0 
186 3 1 7.65764 -17.8418 26.2381 0 0 0 
188 2 1 12.7027 -8.6452 29.0776 0 0 0 
189 3 1 12.1094 -5.48479 30.661 0 0 0 
192 3 1 12.2042 -20.1937 32.4789 0 0 0 
187 1 1 11.5431 -11.6272 27.2391 0 0 0 
191 2 1 12.3654 -16.4406 32.1975 0 0 0 
190 1 1 11.2681 -13.0775 30.8603 0 0 0 
193 1 1 10.2623 -13.2366 34.8166 0 0 0 
196 1 1 9.44634 -13.9926 38.4835 0 0 0 
194 2 1 9.50771 -9.94979 37.0648 0 0 0 
195 3 1 10.6013 -8.47883 40.5447 0 0 0 
199 1 1 8.81059 -13.0808 42.1819 0 0 0 
197 2 1 7.53428 -17.2617 40.0178 0 0 0 
198 3 1 4.8866 -19.2052 41.8923 0 0 0 
202 1 1 9.97184 -10.5264 45.0821 0 0 0 
200 2 1 6.44476 -14.1578 45.4451 0 0 0 
203 2 1 9.48267 -11.7233 48.9203 0 0 0 
201 3 1 2.74827 -14.4943 45.4274 0 0 0 
207 3 1 10.3574 -1.13001 47.4051 0 0 0 
206 2 1 12.2067 -4.0771 46.5173 0 0 0 
210 3 1 17.5511 -10.5816 55.879 0 0 0 
204 3 1 8.04357 -11.9922 52.402 0 0 0 
212 2 1 17.7561 -4.73404 55.7815 0 0 0 
205 1 1 11.7895 -7.94794 47.3688 0 0 0 
208 1 1 13.8486 -6.50581 50.2902 0 0 0 
209 2 1 16.341 -8.44288 52.8981 0 0 0 
211 1 1 15.6986 -3.82073 52.4385 0 0 0 
214 1 1 16.0381 -0.356414 54.109 0 0 0 
215 2 1 15.5545 3.19975 52.2357 0 0 0 
216 3 1 16.2653 7.00064 51.8332 0 0 0 
213 3 1 19.54 -6.60954 58.1935 0 0 0 
218 2 1 17.9895 1.56791 60.282 0 0 0 
217 1 1 16.2095 2.61666 56.7004 0 0 0 
221 2 1 17.1956 6.51659 62.2255 0 0 0 
226 1 1 14.6778 13.2202 60.2044 0 0 0 
220 1 1 16.0697 6.10003 58.2139 0 0 0 
223 1 1 15.5066 9.87326 58.4409 0 0 0 
224 2 1 16.9903 12.3076 55.5674 0 0 0 
229 1 1 14.3263 16.7853 61.6802 0 0 0 
225 3 1 17.2186 14.0891 52.1044 0 0 0 
230 2 1 16.5039 20.1401 60.3884 0 0 0 
231 3 1 17.3979 23.1704 58.4844 0 0 0 
236 2 1 14.6997 26.9987 63.3322 0 0 0 
237 3 1 15.6516 30.0424 61.1279 0 0 0 
242 2 1 13.3561 31.9313 65.2338 0 0 0 
243 3 1 15.0391 34.924 64.2723 0 0 0 
249 3 1 9.07971 41.428 63.5706 0 0 0 
219 3 1 19.4443 -0.356873 63.1038 0 0 0 
222 3 1 17.8332 5.08611 65.4613 0 0 0 
228 3 1 9.68864 13.6333 66.2848 0 0 0 
227 2 1 11.5936 12.855 62.8691 0 0 0 
232 1 1 13.4429 19.9207 63.6438 0 0 0 
235 1 1 13.0925 23.5642 64.8744 0 0 0 
234 3 1 10.9973 18.448 70.9701 0 0 0 
233 2 1 11.8463 19.5005 67.3761 0 0 0 
241 1 1 12.1153 30.1778 68.0824 0 0 0 
239 2 1 9.53168 25.862 69.89 0 0 0 
238 1 1 12.0288 26.5243 66.8821 0 0 0 
240 3 1 6.66598 23.9914 70.8168 0 0 0 
248 2 1 11.7081 39.8648 65.5754 0 0 0 
247 1 1 13.0201 37.6687 68.7256 0 0 0 
250 1 1 13.9921 41.1336 70.1992 0 0 0 
244 1 1 12.5735 33.8089 68.7418 0 0 0 
253 1 1 14.845 43.496 73.0309 0 0 0 
245 2 1 14.3999 34.5567 71.9763 0 0 0 
246 3 1 15.5618 36.4818 75.011 0 0 0 
251 2 1 14.5336 44.8582 68.6433 0 0 0 
252 3 1 14.2376 48.334 69.0169 0 0 0 
263 2 1 10.7425 56.2413 74.9899 0 0 0 
264 3 1 10.9287 59.7412 74.01 0 0 0 
254 2 1 16.2837 43.2101 76.4286 0 0 0 
255 3 1 15.2034 42.9453 80.1072 0 0 0 
261 3 1 18.6593 50.2523 82.1826 0 0 0 
256 1 1 15.0759 46.8268 75.0892 0 0 0 
259 1 1 14.514 50.3503 76.8248 0 0 0 
260 2 1 15.6912 51.1313 80.0555 0 0 0 
262 1 1 13.0618 53.8543 77.2058 0 0 0 
267 3 1 17.1336 57.2779 84.9467 0 0 0 
257 2 1 18.039 46.3925 77.8038 0 0 0 
258 3 1 21.1944 46.4769 80.0339 0 0 0 
269 2 1 8.14724 62.2205 79.4279 0 0 0 
265 1 1 12.084 56.7342 79.5173 0 0 0 
268 1 1 10.186 59.4763 81.5649 0 0 0 
271 1 1 9.31997 61.9167 84.5578 0 0 0 
266 2 1 14.2517 57.1208 82.7067 0 0 0 
270 3 1 4.91215 64.3354 79.7482 0 0 0 
276 3 1 -0.192092 64.2509 83.2242 0 0 0 
273 3 1 13.7941 64.9409 89.6624 0 0 0 
272 2 1 11.8451 62.8131 87.7761 0 0 0 
274 1 1 7.03673 64.361 86.3554 0 0 0 
280 1 1 3.12057 66.6464 92.3995 0 0 0 
281 2 1 0.618908 69.5469 93.8073 0 0 0 
278 2 1 2.8489 70.0575 88.6463 0 0 0 
275 2 1 3.32236 65.1252 84.6853 0 0 0 
277 1 1 4.63771 66.3762 88.8642 0 0 0 
279 3 1 2.55687 73.4286 89.3538 0 0 0 
294 3 1 10.4949 55.4581 104.937 0 0 0 
291 3 1 8.41532 56.385 100.621 0 0 0 
289 1 1 3.97905 62.0169 102.388 0 0 0 
286 1 1 2.82203 64.3001 99.5556 0 0 0 
290 2 1 5.90623 58.5929 101.32 0 0 0 
293 2 1 7.11153 56.9902 105.897 0 0 0 
283 1 1 2.70103 65.947 96.1008 0 0 0 
287 2 1 2.47051 66.5844 102.894 0 0 0 
282 3 1 -1.23603 72.4883 92.9761 0 0 0 
284 2 1 0.803031 68.567 98.414 0 0 0 
285 3 1 -0.948333 71.9277 98.942 0 0 0 
318 3 1 11.9708 32.8106 117.233 0 0 0 
306 3 1 5.99451 47.123 110.868 0 0 0 
305 2 1 8.31369 48.1584 113.238 0 0 0 
315 3 1 14.3731 37.5902 115.021 0 0 0 
314 2 1 13.2914 39.196 118.234 0 0 0 
304 1 1 8.07271 51.119 116.179 0 0 0 
301 1 1 7.14442 54.8476 115.271 0 0 0 
298 1 1 6.02812 57.5034 112.661 0 0 0 
296 2 1 3.02642 61.6458 112.172 0 0 0 
297 3 1 1.66387 64.5777 114.179 0 0 0 
292 1 1 4.83443 60.3786 105.789 0 0 0 
295 1 1 5.32324 59.3674 109.528 0 0 0 
299 2 1 4.38944 59.6676 115.761 0 0 0 
288 3 1 3.9271 69.1189 105.183 0 0 0 
330 3 1 20.2772 23.8273 126.252 0 0 0 
322 1 1 14.6165 33.2364 128.236 0 0 0 
323 2 1 17.6035 33.92 130.567 0 0 0 
324 3 1 19.6835 32.7795 133.55 0 0 0 
321 3 1 12.1047 28.9165 122.239 0 0 0 
317 2 1 11.3684 34.6062 120.626 0 0 0 
320 2 1 13.5581 31.2849 124.404 0 0 0 
319 1 1 13.084 35.3542 125.24 0 0 0 
316 1 1 11.9882 38.0089 122.692 0 0 0 
310 1 1 10.3917 44.9611 120.338 0 0 0 
311 2 1 9.97294 44.7853 124.518 0 0 0 
313 1 1 11.3434 41.2776 120.886 0 0 0 
307 1 1 9.09118 48.2794 118.531 0 0 0 
308 2 1 9.08719 49.5986 122.403 0 0 0 
309 3 1 7.70935 49.7858 125.483 0 0 0 
302 2 1 7.55151 55.0295 119.296 0 0 0 
303 3 1 6.8654 54.5804 122.772 0 0 0 
300 3 1 5.54047 61.1155 118.958 0 0 0 
338 2 1 17.5981 14.0795 130.281 0 0 0 
339 3 1 17.3499 16.1574 127.329 0 0 0 
328 1 1 16.2716 26.7308 131.72 0 0 0 
329 2 1 19.3693 24.9254 129.692 0 0 0 
331 1 1 17.2708 23.4034 133.511 0 0 0 
327 3 1 10.0459 25.4185 133.629 0 0 0 
332 2 1 15.9317 22.1904 137.141 0 0 0 
334 1 1 18.7502 19.7822 133.922 0 0 0 
325 1 1 14.7826 30.1964 130.566 0 0 0 
326 2 1 12.2592 28.593 133.322 0 0 0 
312 3 1 8.25616 44.3117 127.566 0 0 0 
340 1 1 22.8854 13.9084 131.683 0 0 0 
341 2 1 26.6027 14.1913 133.395 0 0 0 
342 3 1 29.9593 15.2875 134.091 0 0 0 
337 1 1 20.0584 16.4108 132.603 0 0 0 
335 2 1 19.8364 17.0967 136.803 0 0 0 
336 3 1 22.7184 15.0998 138.141 0 0 0 
333 3 1 15.3951 22.281 140.608 0 0 0 
ITEM: TIMESTEP
200000
ITEM: NUMBER OF ATOMS
342
ITEM: BOX BOUNDS pp pp pp
-218.196 218.196
-218.196 218.196
-218.196 218.196
ITEM: ATOMS id type mol x y z ix iy iz 
66 3 1 -38.223 -49.9754 -94.0091 0 0 0 
60 3 1 -40.5611 -44.3612 -92.4831 0 0 0 
69 3 1 -33.3497 -56.7551 -90.0933 0 0 0 
71 2 1 -29.5494 -55.2584 -85.0867 0 0 0 
72 3 1 -31.1221 -58.7419 -84.4162 0 0 0 
68 2 1 -31.8756 -53.4297 -88.755 0 0 0 
65 2 1 -35.6195 -49.1398 -91.6131 0 0 0 
64 1 1 -33.8536 -46.2156 -89.5695 0 0 0 
67 1 1 -32.213 -49.4233 -88.017 0 0 0 
70 1 1 -29.8903 -51.2331 -85.4774 0 0 0 
57 3 1 -37.0981 -38.4496 -98.7197 0 0 0 
56 2 1 -37.3833 -36.5642 -95.4755 0 0 0 
59 2 1 -38.0883 -41.7339 -92.9677 0 0 0 
58 1 1 -35.6869 -38.963 -91.3591 0 0 0 
61 1 1 -34.3505 -42.4951 -90.234 0 0 0 
62 2 1 -30.7877 -42.6019 -88.0336 0 0 0 
53 2 1 -38.4079 -30.935 -93.2255 0 0 0 
54 3 1 -41.9484 -29.8612 -94.1251 0 0 0 
55 1 1 -35.9165 -35.1666 -92.0175 0 0 0 
47 2 1 -35.7088 -24.064 -90.3138 0 0 0 
52 1 1 -35.0853 -31.3805 -90.8267 0 0 0 
49 1 1 -33.469 -28.422 -89.1245 0 0 0 
45 3 1 -25.1784 -26.7933 -85.5974 0 0 0 
48 3 1 -39.1873 -25.4139 -90.4471 0 0 0 
42 3 1 -37.103 -20.9697 -85.2546 0 0 0 
46 1 1 -32.309 -24.7548 -88.2199 0 0 0 
41 2 1 -33.9267 -19.6049 -86.418 0 0 0 
43 1 1 -30.3712 -21.6032 -87.0758 0 0 0 
77 2 1 -23.2941 -57.0324 -81.6014 0 0 0 
78 3 1 -22.5691 -59.2532 -84.6895 0 0 0 
76 1 1 -24.881 -53.7205 -80.0681 0 0 0 
79 1 1 -22.5176 -54.9465 -77.2497 0 0 0 
81 3 1 -22.6701 -50.9329 -71.9112 0 0 0 
80 2 1 -20.72 -52.0251 -74.9769 0 0 0 
73 1 1 -27.4327 -51.8065 -82.3832 0 0 0 
74 2 1 -27.4597 -49.5276 -79.1788 0 0 0 
75 3 1 -28.0337 -46.0361 -78.4005 0 0 0 
63 3 1 -28.2514 -44.8988 -87.1722 0 0 0 
51 3 1 -31.1062 -34.8258 -89.3063 0 0 0 
50 2 1 -31.4183 -31.5853 -87.7741 0 0 0 
44 2 1 -27.3008 -24.3299 -87.1193 0 0 0 
40 1 1 -30.5971 -17.8162 -86.1503 0 0 0 
37 1 1 -29.9813 -14.1284 -85.1815 0 0 0 
32 2 1 -26.1573 -12.2047 -80.1885 0 0 0 
33 3 1 -27.0695 -15.3343 -78.4363 0 0 0 
38 2 1 -33.6572 -14.7076 -85.7073 0 0 0 
39 3 1 -36.7534 -14.1097 -84.0734 0 0 0 
34 1 1 -28.75 -10.6844 -83.7973 0 0 0 
36 3 1 -32.4771 -6.03604 -88.4031 0 0 0 
35 2 1 -31.4548 -8.96262 -86.2792 0 0 0 
30 3 1 -28.7683 -1.08304 -85.5194 0 0 0 
29 2 1 -27.649 -3.20626 -82.5117 0 0 0 
31 1 1 -26.7622 -8.34502 -81.2682 0 0 0 
28 1 1 -25.2569 -5.07958 -79.7741 0 0 0 
25 1 1 -22.6025 -3.25465 -77.6919 0 0 0 