ITEM: TIMESTEP
0
ITEM: NUMBER OF ATOMS
348
ITEM: BOX BOUNDS pp pp pp
-219.465 219.465
-219.465 219.465
-219.465 219.465
ITEM: ATOMS id type mol x y z ix iy iz 
2 2 1 -37.1111 -41.8576 -200.954 0 0 0 
3 3 1 -40.5572 -42.5636 -199.712 0 0 0 
1 1 1 -33.7216 -41.7991 -202.825 0 0 0 
4 1 1 -33.1361 -41.064 -199.307 0 0 0 
5 2 1 -29.6086 -42.0032 -200.204 0 0 0 
6 3 1 -26.0214 -42.974 -199.379 0 0 0 
8 2 1 -35.9401 -40.3873 -193.917 0 0 0 
9 3 1 -39.3862 -41.0932 -192.675 0 0 0 
7 1 1 -32.5506 -40.3288 -195.788 0 0 0 
10 1 1 -31.965 -39.5937 -192.27 0 0 0 
11 2 1 -28.4376 -40.5329 -193.168 0 0 0 
12 3 1 -24.8503 -41.5037 -192.343 0 0 0 
15 3 1 -38.2151 -39.6229 -185.638 0 0 0 
13 1 1 -31.3795 -38.8585 -188.752 0 0 0 
14 2 1 -34.769 -38.917 -186.88 0 0 0 
16 1 1 -30.794 -38.1233 -185.233 0 0 0 
17 2 1 -27.2665 -39.0625 -186.131 0 0 0 
19 1 1 -30.2084 -37.3882 -181.715 0 0 0 
20 2 1 -33.598 -37.4466 -179.844 0 0 0 
23 2 1 -26.0954 -37.5922 -179.094 0 0 0 
18 3 1 -23.6793 -40.0334 -185.306 0 0 0 
21 3 1 -37.044 -38.1526 -178.601 0 0 0 
27 3 1 -35.873 -36.6823 -171.564 0 0 0 
22 1 1 -29.6229 -36.653 -178.196 0 0 0 
25 1 1 -29.0374 -35.9178 -174.678 0 0 0 
26 2 1 -32.4269 -35.9763 -172.807 0 0 0 
24 3 1 -22.5082 -38.563 -178.269 0 0 0 
29 2 1 -24.9244 -36.1219 -172.057 0 0 0 
30 3 1 -21.3372 -37.0927 -171.232 0 0 0 
28 1 1 -28.4519 -35.1827 -171.16 0 0 0 
31 1 1 -27.8663 -34.4475 -167.641 0 0 0 
32 2 1 -31.2558 -34.506 -165.77 0 0 0 
33 3 1 -34.7019 -35.2119 -164.528 0 0 0 
34 1 1 -27.2808 -33.7124 -164.123 0 0 0 
37 1 1 -26.6953 -32.9772 -160.604 0 0 0 
38 2 1 -30.0848 -33.0357 -158.733 0 0 0 
35 2 1 -23.7533 -34.6515 -165.02 0 0 0 
36 3 1 -20.1661 -35.6224 -164.195 0 0 0 
39 3 1 -33.5309 -33.7416 -157.491 0 0 0 
40 1 1 -26.1097 -32.242 -157.086 0 0 0 
43 1 1 -25.5242 -31.5069 -153.568 0 0 0 
44 2 1 -28.9137 -31.5653 -151.696 0 0 0 
45 3 1 -32.3598 -32.2713 -150.454 0 0 0 
41 2 1 -22.5823 -33.1812 -157.984 0 0 0 
42 3 1 -18.995 -34.1521 -157.159 0 0 0 
46 1 1 -24.9387 -30.7717 -150.049 0 0 0 
47 2 1 -21.4112 -31.7109 -150.947 0 0 0 
48 3 1 -17.824 -32.6817 -150.122 0 0 0 
50 2 1 -27.7427 -30.095 -144.66 0 0 0 
51 3 1 -31.1887 -30.8009 -143.417 0 0 0 
49 1 1 -24.3531 -30.0365 -146.531 0 0 0 
52 1 1 -23.7676 -29.3014 -143.012 0 0 0 
53 2 1 -20.2401 -30.2406 -143.91 0 0 0 
54 3 1 -16.6529 -31.2114 -143.085 0 0 0 
55 1 1 -23.1821 -28.5662 -139.494 0 0 0 
56 2 1 -26.5716 -28.6247 -137.623 0 0 0 
57 3 1 -30.0177 -29.3306 -136.38 0 0 0 
63 3 1 -28.8466 -27.8603 -129.344 0 0 0 
58 1 1 -22.5965 -27.831 -135.976 0 0 0 
59 2 1 -19.0691 -28.7702 -136.873 0 0 0 
60 3 1 -15.4819 -29.7411 -136.048 0 0 0 
61 1 1 -22.011 -27.0959 -132.457 0 0 0 
62 2 1 -25.4005 -27.1544 -130.586 0 0 0 
64 1 1 -21.4255 -26.3607 -128.939 0 0 0 
65 2 1 -17.898 -27.2999 -129.837 0 0 0 
66 3 1 -14.3108 -28.2708 -129.011 0 0 0 
69 3 1 -27.6755 -26.39 -122.307 0 0 0 
67 1 1 -20.84 -25.6256 -125.42 0 0 0 
68 2 1 -24.2295 -25.684 -123.549 0 0 0 
71 2 1 -16.7269 -25.8296 -122.8 0 0 0 
72 3 1 -13.1397 -26.8004 -121.975 0 0 0 
70 1 1 -20.2544 -24.8904 -121.902 0 0 0 
73 1 1 -19.6689 -24.1552 -118.384 0 0 0 
75 3 1 -26.5045 -24.9196 -115.27 0 0 0 
74 2 1 -23.0584 -24.2137 -116.512 0 0 0 
76 1 1 -19.0834 -23.4201 -114.865 0 0 0 
77 2 1 -15.5559 -24.3592 -115.763 0 0 0 
79 1 1 -18.4978 -22.6849 -111.347 0 0 0 
80 2 1 -21.8874 -22.7434 -109.475 0 0 0 
81 3 1 -25.3334 -23.4493 -108.233 0 0 0 
82 1 1 -17.9123 -21.9497 -107.828 0 0 0 
78 3 1 -11.9687 -25.3301 -114.938 0 0 0 
83 2 1 -14.3848 -22.8889 -108.726 0 0 0 
84 3 1 -10.7976 -23.8598 -107.901 0 0 0 
85 1 1 -17.3268 -21.2146 -104.31 0 0 0 
86 2 1 -20.7163 -21.2731 -102.439 0 0 0 
87 3 1 -24.1623 -21.979 -101.196 0 0 0 
88 1 1 -16.7412 -20.4794 -100.792 0 0 0 
91 1 1 -16.1557 -19.7443 -97.2732 0 0 0 
89 2 1 -13.2138 -21.4186 -101.689 0 0 0 
90 3 1 -9.62656 -22.3895 -100.864 0 0 0 
92 2 1 -19.5452 -19.8027 -95.4019 0 0 0 
93 3 1 -22.9913 -20.5086 -94.1596 0 0 0 
94 1 1 -15.5702 -19.0091 -93.7548 0 0 0 
98 2 1 -18.3742 -18.3324 -88.3651 0 0 0 
99 3 1 -21.8202 -19.0383 -87.1228 0 0 0 
95 2 1 -12.0427 -19.9483 -94.6525 0 0 0 
96 3 1 -8.4555 -20.9191 -93.8274 0 0 0 
97 1 1 -14.9846 -18.2739 -90.2364 0 0 0 
101 2 1 -10.8717 -18.4779 -87.6157 0 0 0 
102 3 1 -7.28443 -19.4488 -86.7906 0 0 0 
104 2 1 -17.2031 -16.8621 -81.3283 0 0 0 
105 3 1 -20.6492 -17.568 -80.0861 0 0 0 
100 1 1 -14.3991 -17.5388 -86.718 0 0 0 
103 1 1 -13.8136 -16.8036 -83.1996 0 0 0 
106 1 1 -13.228 -16.0684 -79.6812 0 0 0 
107 2 1 -9.70059 -17.0076 -80.5789 0 0 0 
108 3 1 -6.11337 -17.9785 -79.7538 0 0 0 
110 2 1 -16.032 -15.3918 -74.2915 0 0 0 
111 3 1 -19.4781 -16.0977 -73.0493 0 0 0 
109 1 1 -12.6425 -15.3333 -76.1628 0 0 0 
113 2 1 -8.52953 -15.5373 -73.5421 0 0 0 
114 3 1 -4.94231 -16.5082 -72.7169 0 0 0 
112 1 1 -12.057 -14.5981 -72.6444 0 0 0 
115 1 1 -11.4715 -13.8629 -69.126 0 0 0 
116 2 1 -14.861 -13.9214 -67.2547 0 0 0 
119 2 1 -7.35847 -14.067 -66.5053 0 0 0 
117 3 1 -18.3071 -14.6273 -66.0125 0 0 0 
123 3 1 -17.136 -13.157 -58.9757 0 0 0 
118 1 1 -10.8859 -13.1278 -65.6076 0 0 0 
121 1 1 -10.3004 -12.3926 -62.0892 0 0 0 
122 2 1 -13.6899 -12.4511 -60.2179 0 0 0 
124 1 1 -9.71487 -11.6575 -58.5708 0 0 0 
125 2 1 -6.18741 -12.5966 -59.4685 0 0 0 
120 3 1 -3.77125 -15.0378 -65.6801 0 0 0 
126 3 1 -2.60019 -13.5675 -58.6433 0 0 0 
129 3 1 -15.9649 -11.6867 -51.9389 0 0 0 
127 1 1 -9.12934 -10.9223 -55.0524 0 0 0 
128 2 1 -12.5189 -10.9808 -53.1811 0 0 0 
130 1 1 -8.54381 -10.1871 -51.534 0 0 0 
133 1 1 -7.95828 -9.45196 -48.0156 0 0 0 
134 2 1 -11.3478 -9.51044 -46.1443 0 0 0 
131 2 1 -5.01635 -11.1263 -52.4317 0 0 0 
132 3 1 -1.42913 -12.0972 -51.6065 0 0 0 
135 3 1 -14.7939 -10.2164 -44.9021 0 0 0 
136 1 1 -7.37275 -8.7168 -44.4972 0 0 0 
139 1 1 -6.78722 -7.98163 -40.9788 0 0 0 
140 2 1 -10.1767 -8.04012 -39.1075 0 0 0 
141 3 1 -13.6228 -8.74604 -37.8652 0 0 0 
142 1 1 -6.20169 -7.24647 -37.4604 0 0 0 
137 2 1 -3.84528 -9.65598 -45.3949 0 0 0 
138 3 1 -0.258066 -10.6268 -44.5697 0 0 0 
143 2 1 -2.67422 -8.18566 -38.3581 0 0 0 
144 3 1 0.912995 -9.15652 -37.5329 0 0 0 
145 1 1 -5.61616 -6.51131 -33.942 0 0 0 
146 2 1 -9.00567 -6.56979 -32.0707 0 0 0 
147 3 1 -12.4517 -7.27571 -30.8284 0 0 0 
148 1 1 -5.03063 -5.77614 -30.4236 0 0 0 
149 2 1 -1.50316 -6.71533 -31.3213 0 0 0 
150 3 1 2.08406 -7.68619 -30.4962 0 0 0 
151 1 1 -4.4451 -5.04098 -26.9052 0 0 0 
153 3 1 -11.2807 -5.80539 -23.7916 0 0 0 
155 2 1 -0.332099 -5.245 -24.2845 0 0 0 
156 3 1 3.25512 -6.21586 -23.4593 0 0 0 
152 2 1 -7.83461 -5.09946 -25.0339 0 0 0 
158 2 1 -6.66355 -3.62914 -17.9971 0 0 0 
159 3 1 -10.1096 -4.33506 -16.7548 0 0 0 
154 1 1 -3.85956 -4.30582 -23.3868 0 0 0 
157 1 1 -3.27403 -3.57065 -19.8684 0 0 0 
160 1 1 -2.6885 -2.83549 -16.35 0 0 0 
161 2 1 0.838961 -3.77467 -17.2477 0 0 0 
162 3 1 4.42618 -4.74554 -16.4225 0 0 0 
164 2 1 -5.49249 -2.15881 -10.9603 0 0 0 
165 3 1 -8.93856 -2.86473 -9.71804 0 0 0 
163 1 1 -2.10297 -2.10033 -12.8316 0 0 0 
166 1 1 -1.51744 -1.36516 -9.31319 0 0 0 
167 2 1 2.01002 -2.30435 -10.2109 0 0 0 
169 1 1 -0.931911 -0.629998 -5.79479 0 0 0 
168 3 1 5.59724 -3.27521 -9.38575 0 0 0 
171 3 1 -7.7675 -1.3944 -2.68124 0 0 0 
177 3 1 -6.59644 0.075921 4.35556 0 0 0 
170 2 1 -4.32143 -0.688482 -3.92353 0 0 0 
172 1 1 -0.34638 0.105164 -2.27638 0 0 0 
173 2 1 3.18108 -0.83402 -3.17409 0 0 0 
175 1 1 0.23915 0.840328 1.24202 0 0 0 
176 2 1 -3.15037 0.781844 3.11327 0 0 0 
178 1 1 0.82468 1.57549 4.76042 0 0 0 
179 2 1 4.35215 0.636306 3.86271 0 0 0 
174 3 1 6.7683 -1.80488 -2.34895 0 0 0 
180 3 1 7.93936 -0.334554 4.68786 0 0 0 
183 3 1 -5.42537 1.54625 11.3924 0 0 0 
181 1 1 1.41021 2.31066 8.27882 0 0 0 
182 2 1 -1.97931 2.25217 10.1501 0 0 0 
184 1 1 1.99574 3.04582 11.7972 0 0 0 
185 2 1 5.52321 2.10663 10.8995 0 0 0 
186 3 1 9.11042 1.13577 11.7247 0 0 0 
187 1 1 2.58127 3.78098 15.3156 0 0 0 
188 2 1 -0.808244 3.7225 17.1869 0 0 0 
189 3 1 -4.25431 3.01658 18.4292 0 0 0 
190 1 1 3.1668 4.51615 18.834 0 0 0 
195 3 1 -3.08325 4.4869 25.466 0 0 0 
191 2 1 6.69427 3.57696 17.9363 0 0 0 
192 3 1 10.2815 2.6061 18.7614 0 0 0 
197 2 1 7.86533 5.04729 24.9731 0 0 0 
193 1 1 3.75233 5.25131 22.3524 0 0 0 
194 2 1 0.362816 5.19283 24.2237 0 0 0 
198 3 1 11.4525 4.07643 25.7983 0 0 0 
196 1 1 4.33786 5.98647 25.8708 0 0 0 
199 1 1 4.9234 6.72164 29.3892 0 0 0 
200 2 1 1.53388 6.66315 31.2605 0 0 0 
201 3 1 -1.91219 5.95723 32.5028 0 0 0 
202 1 1 5.50893 7.4568 32.9076 0 0 0 
203 2 1 9.03639 6.51761 32.0099 0 0 0 
204 3 1 12.6236 5.54675 32.8351 0 0 0 
206 2 1 2.70494 8.13348 38.2973 0 0 0 
207 3 1 -0.74113 7.42756 39.5396 0 0 0 
212 2 1 3.876 9.60381 45.3341 0 0 0 
205 1 1 6.09446 8.19196 36.426 0 0 0 
208 1 1 6.67999 8.92713 39.9444 0 0 0 
209 2 1 10.2074 7.98794 39.0467 0 0 0 
210 3 1 13.7947 7.01708 39.8719 0 0 0 
211 1 1 7.26552 9.66229 43.4628 0 0 0 
213 3 1 0.429931 8.89788 46.5764 0 0 0 
218 2 1 5.04706 11.0741 52.3709 0 0 0 
219 3 1 1.60099 10.3682 53.6132 0 0 0 
214 1 1 7.85105 10.3974 46.9812 0 0 0 
215 2 1 11.3785 9.45827 46.0835 0 0 0 
216 3 1 14.9657 8.48741 46.9087 0 0 0 
217 1 1 8.43658 11.1326 50.4996 0 0 0 
220 1 1 9.02211 11.8678 54.018 0 0 0 
221 2 1 12.5496 10.9286 53.1203 0 0 0 
222 3 1 16.1368 9.95773 53.9455 0 0 0 
225 3 1 2.77205 11.8385 60.65 0 0 0 
223 1 1 9.60764 12.6029 57.5364 0 0 0 
224 2 1 6.21812 12.5445 59.4077 0 0 0 
226 1 1 10.1932 13.3381 61.0548 0 0 0 
227 2 1 13.7206 12.3989 60.1571 0 0 0 
229 1 1 10.7787 14.0733 64.5732 0 0 0 
228 3 1 17.3078 11.4281 60.9823 0 0 0 
231 3 1 3.94312 13.3089 67.6868 0 0 0 
230 2 1 7.38919 14.0148 66.4445 0 0 0 
232 1 1 11.3642 14.8084 68.0916 0 0 0 
233 2 1 14.8917 13.8692 67.1939 0 0 0 
237 3 1 5.11418 14.7792 74.7236 0 0 0 
234 3 1 18.4789 12.8984 68.0191 0 0 0 
240 3 1 19.65 14.3687 75.0559 0 0 0 
235 1 1 11.9498 15.5436 71.61 0 0 0 
236 2 1 8.56025 15.4851 73.4813 0 0 0 
238 1 1 12.5353 16.2788 75.1284 0 0 0 
239 2 1 16.0628 15.3396 74.2307 0 0 0 
241 1 1 13.1208 17.0139 78.6468 0 0 0 
242 2 1 9.73131 16.9554 80.5181 0 0 0 
243 3 1 6.28524 16.2495 81.7604 0 0 0 
244 1 1 13.7064 17.7491 82.1652 0 0 0 
247 1 1 14.2919 18.4842 85.6836 0 0 0 
245 2 1 17.2338 16.8099 81.2675 0 0 0 
246 3 1 20.821 15.839 82.0927 0 0 0 
248 2 1 10.9024 18.4258 87.5549 0 0 0 
249 3 1 7.4563 17.7198 88.7972 0 0 0 
250 1 1 14.8774 19.2194 89.202 0 0 0 
254 2 1 12.0734 19.8961 94.5917 0 0 0 
255 3 1 8.62736 19.1902 95.834 0 0 0 
251 2 1 18.4049 18.2802 88.3043 0 0 0 
252 3 1 21.9921 17.3094 89.1295 0 0 0 
253 1 1 15.4629 19.9546 92.7204 0 0 0 
256 1 1 16.0485 20.6897 96.2388 0 0 0 
257 2 1 19.5759 19.7506 95.3411 0 0 0 
258 3 1 23.1632 18.7797 96.1663 0 0 0 
260 2 1 13.2445 21.3664 101.628 0 0 0 
261 3 1 9.79842 20.6605 102.871 0 0 0 
259 1 1 16.634 21.4249 99.7572 0 0 0 
262 1 1 17.2195 22.1601 103.276 0 0 0 
263 2 1 20.747 21.2209 102.378 0 0 0 
264 3 1 24.3342 20.25 103.203 0 0 0 
265 1 1 17.8051 22.8952 106.794 0 0 0 
266 2 1 14.4155 22.8367 108.665 0 0 0 
267 3 1 10.9695 22.1308 109.907 0 0 0 
273 3 1 12.1405 23.6012 116.944 0 0 0 
268 1 1 18.3906 23.6304 110.312 0 0 0 
269 2 1 21.9181 22.6912 109.415 0 0 0 
270 3 1 25.5053 21.7203 110.24 0 0 0 
271 1 1 18.9761 24.3656 113.831 0 0 0 
272 2 1 15.5866 24.3071 115.702 0 0 0 
274 1 1 19.5617 25.1007 117.349 0 0 0 
275 2 1 23.0891 24.1615 116.451 0 0 0 
276 3 1 26.6763 23.1907 117.277 0 0 0 
279 3 1 13.3116 25.0715 123.981 0 0 0 
282 3 1 27.8474 24.661 124.313 0 0 0 
277 1 1 20.1472 25.8359 120.868 0 0 0 
278 2 1 16.7577 25.7774 122.739 0 0 0 
280 1 1 20.7327 26.571 124.386 0 0 0 
281 2 1 24.2602 25.6319 123.488 0 0 0 
285 3 1 14.4827 26.5418 131.018 0 0 0 
283 1 1 21.3182 27.3062 127.904 0 0 0 
284 2 1 17.9287 27.2477 129.776 0 0 0 
286 1 1 21.9038 28.0414 131.423 0 0 0 
287 2 1 25.4312 27.1022 130.525 0 0 0 
289 1 1 22.4893 28.7765 134.941 0 0 0 
290 2 1 19.0998 28.7181 136.812 0 0 0 
288 3 1 29.0185 26.1313 131.35 0 0 0 
293 2 1 26.6023 28.5725 137.562 0 0 0 
291 3 1 15.6537 28.0121 138.055 0 0 0 
292 1 1 23.0748 29.5117 138.46 0 0 0 
295 1 1 23.6604 30.2469 141.978 0 0 0 
296 2 1 20.2709 30.1884 143.849 0 0 0 
297 3 1 16.8248 29.4825 145.091 0 0 0 
298 1 1 24.2459 30.982 145.496 0 0 0 
294 3 1 30.1895 27.6017 138.387 0 0 0 
299 2 1 27.7734 30.0428 144.599 0 0 0 
300 3 1 31.3606 29.072 145.424 0 0 0 
301 1 1 24.8314 31.7172 149.015 0 0 0 
302 2 1 21.4419 31.6587 150.886 0 0 0 
303 3 1 17.9959 30.9528 152.128 0 0 0 
304 1 1 25.417 32.4524 152.533 0 0 0 
308 2 1 22.613 33.129 157.923 0 0 0 
305 2 1 28.9444 31.5132 151.636 0 0 0 
306 3 1 32.5316 30.5423 152.461 0 0 0 
307 1 1 26.0025 33.1875 156.052 0 0 0 
309 3 1 19.1669 32.4231 159.165 0 0 0 
314 2 1 23.784 34.5994 164.96 0 0 0 
315 3 1 20.338 33.8934 166.202 0 0 0 
310 1 1 26.588 33.9227 159.57 0 0 0 
311 2 1 30.1155 32.9835 158.672 0 0 0 
312 3 1 33.7027 32.0126 159.497 0 0 0 
313 1 1 27.1736 34.6579 163.088 0 0 0 
316 1 1 27.7591 35.393 166.607 0 0 0 
317 2 1 31.2865 34.4538 165.709 0 0 0 
318 3 1 34.8738 33.483 166.534 0 0 0 
321 3 1 21.509 35.3638 173.239 0 0 0 
324 3 1 36.0448 34.9533 173.571 0 0 0 
320 2 1 24.9551 36.0697 171.996 0 0 0 
319 1 1 28.3446 36.1282 170.125 0 0 0 
322 1 1 28.9302 36.8633 173.644 0 0 0 
323 2 1 32.4576 35.9241 172.746 0 0 0 
325 1 1 29.5157 37.5985 177.162 0 0 0 
327 3 1 22.6801 36.8341 180.275 0 0 0 
333 3 1 23.8512 38.3044 187.312 0 0 0 
326 2 1 26.1262 37.54 179.033 0 0 0 
328 1 1 30.1012 38.3337 180.68 0 0 0 
329 2 1 33.6287 37.3945 179.783 0 0 0 
331 1 1 30.6867 39.0688 184.199 0 0 0 
332 2 1 27.2972 39.0103 186.07 0 0 0 
334 1 1 31.2723 39.804 187.717 0 0 0 
335 2 1 34.7997 38.8648 186.82 0 0 0 
330 3 1 37.2159 36.4236 180.608 0 0 0 
336 3 1 38.387 37.8939 187.645 0 0 0 
339 3 1 25.0222 39.7747 194.349 0 0 0 
337 1 1 31.8578 40.5391 191.236 0 0 0 
338 2 1 28.4683 40.4807 193.107 0 0 0 
340 1 1 32.4433 41.2743 194.754 0 0 0 
343 1 1 33.0289 42.0095 198.272 0 0 0 
341 2 1 35.9708 40.3351 193.856 0 0 0 
342 3 1 39.558 39.3643 194.681 0 0 0 
344 2 1 29.6394 41.951 200.144 0 0 0 
345 3 1 26.1933 41.2451 201.386 0 0 0 
346 1 1 33.6144 42.7446 201.791 0 0 0 
347 2 1 37.1419 41.8055 200.893 0 0 0 
348 3 1 40.7291 40.8346 201.718 0 0 0 
ITEM: TIMESTEP
100000
ITEM: NUMBER OF ATOMS
348
ITEM: BOX BOUNDS pp pp pp
-219.465 219.465
-219.465 219.465
-219.465 219.465
ITEM: ATOMS id type mol x y z ix iy iz 
6 3 1 -35.9458 -43.431 -134.258 0 0 0 
9 3 1 -33.6371 -49.1958 -136.033 0 0 0 
10 1 1 -26.8795 -49.1473 -131.276 0 0 0 
11 2 1 -26.0201 -51.4297 -134.633 0 0 0 
12 3 1 -25.354 -55.0012 -135.083 0 0 0 
8 2 1 -31.3842 -49.2307 -133.364 0 0 0 
21 3 1 -13.1706 -58.354 -135.999 0 0 0 
13 1 1 -23.3132 -50.8436 -131.588 0 0 0 
14 2 1 -22.0461 -51.5999 -134.834 0 0 0 
16 1 1 -19.7422 -52.0124 -130.822 0 0 0 
15 3 1 -21.96 -53.3659 -138.088 0 0 0 
20 2 1 -14.3161 -55.1638 -134.259 0 0 0 
19 1 1 -15.9686 -53.2369 -130.936 0 0 0 
24 3 1 -6.77423 -55.5704 -134.682 0 0 0 
23 2 1 -9.25842 -55.1319 -132.04 0 0 0 
26 2 1 -6.1409 -56.1258 -127.98 0 0 0 
27 3 1 -4.75402 -59.3895 -126.881 0 0 0 
2 2 1 -32.2287 -45.762 -123.116 0 0 0 
1 1 1 -33.8908 -42.7171 -125.291 0 0 0 
5 2 1 -33.7239 -44.7966 -131.832 0 0 0 
4 1 1 -32.2091 -44.8047 -128.177 0 0 0 
7 1 1 -30.0603 -47.1636 -130.136 0 0 0 
17 2 1 -19.7757 -53.6415 -127.347 0 0 0 
18 3 1 -20.9186 -53.8558 -123.609 0 0 0 
22 1 1 -12.3186 -53.624 -129.701 0 0 0 
25 1 1 -9.16678 -53.405 -127.466 0 0 0 
28 1 1 -6.74618 -52.8656 -124.428 0 0 0 
31 1 1 -4.85441 -51.5407 -121.129 0 0 0 
30 3 1 0.0711979 -55.746 -123.449 0 0 0 
29 2 1 -3.10356 -54.7566 -124.498 0 0 0 
33 3 1 1.90931 -50.0531 -119.326 0 0 0 
32 2 1 -1.32813 -49.9658 -120.434 0 0 0 
3 3 1 -33.203 -49.4492 -122.816 0 0 0 
36 3 1 -6.76973 -56.1418 -112.597 0 0 0 
35 2 1 -6.51717 -53.2814 -114.95 0 0 0 
34 1 1 -4.84605 -50.6537 -117.329 0 0 0 
37 1 1 -4.19632 -49.547 -113.738 0 0 0 
38 2 1 -2.45286 -46.3256 -112.023 0 0 0 
40 1 1 -4.14867 -49.6641 -109.923 0 0 0 
41 2 1 -6.60243 -51.6994 -107.226 0 0 0 
42 3 1 -9.57021 -52.1919 -105.06 0 0 0 
39 3 1 0.781349 -45.0041 -112.133 0 0 0 
47 2 1 -1.61808 -50.355 -100.005 0 0 0 
48 3 1 -3.99058 -52.5306 -98.0502 0 0 0 
43 1 1 -2.61184 -48.1022 -106.562 0 0 0 
44 2 1 -0.923436 -44.3344 -106.895 0 0 0 
46 1 1 -1.08406 -47.7078 -102.87 0 0 0 
49 1 1 0.81938 -46.1615 -99.7879 0 0 0 
45 3 1 1.03735 -41.8301 -108.235 0 0 0 
50 2 1 4.25627 -44.7736 -100.043 0 0 0 
51 3 1 7.20485 -46.4286 -100.996 0 0 0 
57 3 1 11.5012 -43.2317 -92.1129 0 0 0 
54 3 1 0.0650802 -44.4198 -90.5015 0 0 0 
53 2 1 -1.25222 -43.5826 -93.7682 0 0 0 
52 1 1 1.66572 -44.619 -96.4101 0 0 0 
56 2 1 7.82558 -42.1774 -93.0304 0 0 0 
55 1 1 3.83368 -42.6887 -93.7938 0 0 0 
58 1 1 3.73941 -40.5015 -90.5153 0 0 0 
59 2 1 1.35238 -37.0923 -90.4091 0 0 0 
61 1 1 4.38171 -38.0514 -87.4235 0 0 0 
62 2 1 7.79762 -37.4949 -86.6285 0 0 0 
63 3 1 11.044 -38.5337 -86.1496 0 0 0 
72 3 1 1.2997 -23.2761 -87.6382 0 0 0 
60 3 1 -1.99088 -35.7606 -91.5108 0 0 0 
64 1 1 3.98617 -35.2405 -84.952 0 0 0 
65 2 1 5.38137 -35.8141 -81.0809 0 0 0 
66 3 1 4.66982 -36.4862 -77.29 0 0 0 
67 1 1 3.48435 -31.7287 -83.2932 0 0 0 
70 1 1 2.51907 -28.1267 -82.3651 0 0 0 
73 1 1 1.4031 -25.3374 -79.8417 0 0 0 
71 2 1 2.52592 -24.7879 -84.7249 0 0 0 
74 2 1 1.6637 -21.2406 -79.8708 0 0 0 
68 2 1 3.82219 -31.5963 -79.1998 0 0 0 
69 3 1 2.2965 -32.1973 -76.2158 0 0 0 
76 1 1 -0.035709 -23.6536 -76.7525 0 0 0 
75 3 1 3.64302 -17.8912 -80.5294 0 0 0 
78 3 1 -1.14568 -27.4681 -70.3809 0 0 0 
84 3 1 -8.97451 -18.263 -68.0757 0 0 0 
77 2 1 -0.931591 -26.2696 -73.8192 0 0 0 
79 1 1 -1.60963 -21.4172 -74.1942 0 0 0 
82 1 1 -2.97832 -18.4513 -72.2268 0 0 0 
81 3 1 -2.71739 -20.425 -67.6278 0 0 0 
80 2 1 -2.52678 -22.5982 -70.8587 0 0 0 
83 2 1 -6.59327 -18.4574 -70.622 0 0 0 
90 3 1 -13.6959 -10.7894 -68.7241 0 0 0 
85 1 1 -3.99274 -15.0307 -70.9121 0 0 0 
87 3 1 -0.412009 -8.56901 -72.8735 0 0 0 
86 2 1 -2.10845 -11.4121 -71.1972 0 0 0 
88 1 1 -6.18385 -12.388 -69.0252 0 0 0 
89 2 1 -10.1468 -12.1918 -68.0498 0 0 0 
91 1 1 -6.57236 -8.92588 -67.2838 0 0 0 
92 2 1 -10.0379 -7.96067 -65.6464 0 0 0 
93 3 1 -12.5691 -8.85436 -63.3709 0 0 0 
97 1 1 -6.49673 -1.32394 -66.7596 0 0 0 
94 1 1 -6.9271 -5.16838 -66.1474 0 0 0 
95 2 1 -9.08759 -4.56663 -62.849 0 0 0 
100 1 1 -7.16289 2.34552 -67.2366 0 0 0 
98 2 1 -3.2197 0.433249 -67.4231 0 0 0 
96 3 1 -10.0739 -4.37267 -59.6201 0 0 0 
104 2 1 -11.9106 7.18791 -69.6547 0 0 0 
110 2 1 -5.44096 14.8415 -72.5335 0 0 0 
111 3 1 -4.67804 15.4145 -75.8756 0 0 0 
101 2 1 -4.03115 4.84955 -68.1191 0 0 0 
103 1 1 -8.23803 5.84998 -68.2257 0 0 0 
99 3 1 0.571834 0.508849 -67.087 0 0 0 
114 3 1 -6.72744 20.2571 -75.324 0 0 0 
113 2 1 -6.00145 19.5977 -71.7051 0 0 0 
120 3 1 -8.76012 31.2538 -70.3495 0 0 0 
105 3 1 -14.3198 9.87958 -70.7854 0 0 0 
109 1 1 -7.73255 13.5467 -69.3688 0 0 0 
106 1 1 -7.50217 9.62374 -68.8236 0 0 0 
107 2 1 -3.91461 10.8522 -68.4768 0 0 0 
102 3 1 -0.839027 6.08761 -67.9873 0 0 0 
108 3 1 -0.692519 11.8286 -66.7833 0 0 0 
112 1 1 -8.22185 17.4162 -68.921 0 0 0 
119 2 1 -8.20087 28.2969 -67.8522 0 0 0 
116 2 1 -13.2647 22.3558 -68.2287 0 0 0 
121 1 1 -11.4514 26.9626 -64.1691 0 0 0 
115 1 1 -9.35435 21.0954 -68.0736 0 0 0 
118 1 1 -9.72252 24.8028 -66.7764 0 0 0 
122 2 1 -12.5802 30.6763 -65.9017 0 0 0 
123 3 1 -12.151 33.8908 -67.0051 0 0 0 
124 1 1 -13.8195 28.6184 -61.4646 0 0 0 
125 2 1 -14.5001 32.7055 -61.3 0 0 0 
126 3 1 -15.5542 36.3883 -61.9629 0 0 0 
117 3 1 -15.6964 24.8216 -68.9192 0 0 0 
128 2 1 -19.491 30.9419 -58.2985 0 0 0 
129 3 1 -21.2629 33.9674 -58.6664 0 0 0 
127 1 1 -15.8171 29.2011 -58.172 0 0 0 
130 1 1 -16.8287 29.2817 -54.4222 0 0 0 
131 2 1 -19.7591 32.0327 -53.6545 0 0 0 
133 1 1 -16.9431 29.2565 -50.452 0 0 0 
132 3 1 -22.7047 33.0924 -51.3078 0 0 0 
150 3 1 -11.9434 24.5665 -31.2458 0 0 0 
136 1 1 -17.8907 29.9429 -46.7879 0 0 0 
137 2 1 -14.674 29.5714 -44.3793 0 0 0 
139 1 1 -19.7987 29.9424 -43.5126 0 0 0 
142 1 1 -20.8176 29.1466 -39.854 0 0 0 
134 2 1 -14.4308 27.2455 -48.1128 0 0 0 
138 3 1 -12.3917 27.6911 -42.3638 0 0 0 
135 3 1 -12.5744 24.4619 -46.2558 0 0 0 
140 2 1 -23.7737 30.9969 -44.0425 0 0 0 
141 3 1 -26.4223 33.6704 -43.9516 0 0 0 
159 3 1 -13.0222 21.4711 -19.2612 0 0 0 
162 3 1 -12.356 15.8522 -18.1073 0 0 0 
158 2 1 -16.1418 20.6156 -21.2736 0 0 0 
156 3 1 -11.6592 18.7975 -25.7387 0 0 0 
151 1 1 -19.724 22.7113 -30.6684 0 0 0 
154 1 1 -19.1113 20.8468 -27.2983 0 0 0 
149 2 1 -15.5111 23.9067 -32.4175 0 0 0 
157 1 1 -18.6906 18.952 -23.9251 0 0 0 
155 2 1 -15.118 20.5565 -26.0964 0 0 0 
152 2 1 -22.5491 19.892 -29.8496 0 0 0 
148 1 1 -19.1777 25.167 -33.5831 0 0 0 
145 1 1 -20.3539 27.2784 -36.6086 0 0 0 
143 2 1 -23.6847 30.4738 -37.2668 0 0 0 
147 3 1 -25.5659 24.6174 -34.5227 0 0 0 
146 2 1 -23.4571 27.5136 -34.2121 0 0 0 
144 3 1 -25.3945 32.7303 -35.2238 0 0 0 
161 2 1 -15.6088 15.5952 -19.4265 0 0 0 
160 1 1 -18.922 16.515 -20.8183 0 0 0 
163 1 1 -20.1289 14.7638 -17.5256 0 0 0 
164 2 1 -23.6718 13.1967 -16.0991 0 0 0 
166 1 1 -18.7367 13.6819 -14.0599 0 0 0 
167 2 1 -15.2896 14.7616 -12.4022 0 0 0 
165 3 1 -26.8743 11.6206 -16.4497 0 0 0 
153 3 1 -25.69 18.3415 -30.983 0 0 0 
176 2 1 -22.4539 3.70794 -4.36189 0 0 0 
175 1 1 -19.3667 5.7066 -6.01356 0 0 0 
177 3 1 -25.8447 3.98271 -2.44582 0 0 0 
171 3 1 -25.6097 13.3613 -8.54533 0 0 0 
170 2 1 -22.2713 12.2879 -9.03314 0 0 0 
169 1 1 -18.9104 11.5054 -10.9262 0 0 0 
172 1 1 -19.0675 8.52679 -8.63111 0 0 0 
168 3 1 -11.8517 16.3831 -12.4535 0 0 0 
173 2 1 -16.2173 5.9792 -9.6735 0 0 0 
174 3 1 -13.734 4.14853 -11.3117 0 0 0 
185 2 1 -12.6791 -4.3373 2.40395 0 0 0 
181 1 1 -16.4169 -0.0887494 -1.70349 0 0 0 
182 2 1 -12.4457 -0.386467 -0.949805 0 0 0 
178 1 1 -17.3681 2.86773 -4.13523 0 0 0 
184 1 1 -16.1917 -2.93875 1.11383 0 0 0 
187 1 1 -16.854 -5.48231 3.94184 0 0 0 
179 2 1 -13.3985 3.28963 -4.18375 0 0 0 
183 3 1 -9.33144 -2.3908 -1.82969 0 0 0 
180 3 1 -10.5971 3.37327 -6.19093 0 0 0 
195 3 1 -24.5383 -15.6248 5.73314 0 0 0 
194 2 1 -23.3296 -12.7053 7.82596 0 0 0 
193 1 1 -21.0168 -9.98088 8.81772 0 0 0 
200 2 1 -24.82 -16.7238 14.4363 0 0 0 
201 3 1 -27.0586 -19.2078 12.9828 0 0 0 
196 1 1 -22.3744 -11.0286 12.2573 0 0 0 
190 1 1 -18.6292 -7.94197 6.56651 0 0 0 
186 3 1 -9.71035 -6.1598 2.51501 0 0 0 
192 3 1 -14.7947 -7.20023 12.8761 0 0 0 
191 2 1 -17.1477 -8.72827 10.3035 0 0 0 
188 2 1 -14.3139 -5.99583 7.15641 0 0 0 
189 3 1 -11.1902 -5.15517 8.4279 0 0 0 
204 3 1 -28.1414 -19.5821 22.9228 0 0 0 
207 3 1 -29.9463 -12.1952 27.4953 0 0 0 
203 2 1 -26.9519 -16.4811 20.8937 0 0 0 
206 2 1 -26.9603 -12.8929 25.667 0 0 0 
202 1 1 -24.5952 -13.9042 18.7826 0 0 0 
199 1 1 -23.6718 -13.2741 15.1203 0 0 0 
197 2 1 -21.0453 -9.80962 15.6127 0 0 0 
205 1 1 -24.4792 -12.6923 22.4847 0 0 0 
198 3 1 -21.5484 -9.13043 19.4429 0 0 0 
213 3 1 -24.4057 -11.4047 35.3371 0 0 0 
209 2 1 -19.7241 -8.33275 25.1084 0 0 0 
208 1 1 -23.0312 -10.5969 25.3571 0 0 0 
211 1 1 -22.3632 -8.44579 28.4359 0 0 0 
212 2 1 -24.0413 -9.2225 32.1904 0 0 0 
214 1 1 -20.9796 -5.57115 30.6995 0 0 0 
210 3 1 -16.742 -6.68329 26.5367 0 0 0 
215 2 1 -21.0995 -2.11951 28.8175 0 0 0 
216 3 1 -20.3838 0.465882 26.3994 0 0 0 
217 1 1 -19.4286 -3.0745 33.2631 0 0 0 
220 1 1 -18.1302 -1.07093 36.1973 0 0 0 
218 2 1 -18.311 0.499951 31.71 0 0 0 
221 2 1 -17.4494 -3.5175 39.2124 0 0 0 
224 2 1 -14.6619 4.88917 37.9627 0 0 0 
225 3 1 -14.4204 7.73864 36.1 0 0 0 
223 1 1 -16.1389 1.22374 38.7335 0 0 0 
219 3 1 -15.7616 2.35079 29.7195 0 0 0 
222 3 1 -17.6052 -6.99949 38.5692 0 0 0 
226 1 1 -13.8858 2.22306 41.7858 0 0 0 
227 2 1 -12.1003 5.87745 41.1075 0 0 0 
229 1 1 -12.0553 3.52004 44.9605 0 0 0 
230 2 1 -12.3171 6.99667 47.0462 0 0 0 
228 3 1 -9.86648 8.1596 39.0731 0 0 0 
234 3 1 -4.07132 -0.743323 49.614 0 0 0 
233 2 1 -5.70282 2.15114 48.318 0 0 0 
232 1 1 -9.48139 3.58077 47.9927 0 0 0 
235 1 1 -8.44071 4.57338 51.6611 0 0 0 
240 3 1 0.146979 1.0653 51.6806 0 0 0 
239 2 1 -2.45747 3.54429 53.1495 0 0 0 
231 3 1 -14.9218 9.76305 46.4418 0 0 0 
236 2 1 -10.2693 6.81695 54.2838 0 0 0 
238 1 1 -5.58701 4.58741 54.1788 0 0 0 
237 3 1 -11.6935 9.86506 55.9961 0 0 0 
242 2 1 -0.913956 2.52986 58.3462 0 0 0 
243 3 1 0.27265 -0.993816 59.1705 0 0 0 
241 1 1 -3.46615 5.14313 57.3058 0 0 0 
244 1 1 -1.4408 6.7146 60.3323 0 0 0 
245 2 1 -0.980169 10.6394 61.1304 0 0 0 
247 1 1 0.386995 7.4332 63.6103 0 0 0 
250 1 1 2.8166 8.95469 66.1314 0 0 0 
258 3 1 9.70555 18.7833 73.6311 0 0 0 
246 3 1 0.119939 13.7008 62.7391 0 0 0 
252 3 1 6.18534 15.66 66.6145 0 0 0 
251 2 1 4.99924 12.3238 65.3196 0 0 0 
253 1 1 4.57169 10.1059 69.3138 0 0 0 
248 2 1 -0.272242 5.18508 66.9828 0 0 0 
249 3 1 -0.327965 1.91842 69.0129 0 0 0 
257 2 1 7.66301 16.2334 72.3711 0 0 0 
264 3 1 11.0926 14.5093 84.5337 0 0 0 
255 3 1 4.38911 5.27736 75.2757 0 0 0 
254 2 1 4.84023 7.53366 72.3863 0 0 0 
256 1 1 6.53049 12.186 72.1479 0 0 0 
259 1 1 8.58595 12.8217 75.3795 0 0 0 
260 2 1 8.72571 10.9921 78.9625 0 0 0 
262 1 1 11.2731 14.7813 77.5591 0 0 0 
263 2 1 11.3998 14.0377 80.9976 0 0 0 
265 1 1 14.12 17.0964 78.7762 0 0 0 
261 3 1 6.31783 10.1872 81.8161 0 0 0 
267 3 1 13.5413 22.8567 73.8096 0 0 0 
266 2 1 14.6512 20.1258 76.2205 0 0 0 
269 2 1 19.1538 21.2017 77.8833 0 0 0 
270 3 1 21.9603 21.9853 75.4716 0 0 0 
268 1 1 16.8284 19.0876 80.5733 0 0 0 
271 1 1 19.3392 20.724 83.0256 0 0 0 
274 1 1 21.2359 21.9889 86.038 0 0 0 
272 2 1 22.7063 22.6676 81.5965 0 0 0 
275 2 1 25.0722 23.0839 85.3133 0 0 0 
273 3 1 26.3308 22.5761 80.1501 0 0 0 
277 1 1 22.7452 22.8353 89.6919 0 0 0 
278 2 1 25.7992 25.3788 90.5136 0 0 0 
279 3 1 27.9449 28.1444 90.6404 0 0 0 
283 1 1 25.2763 23.9609 96.742 0 0 0 
284 2 1 27.9348 26.9812 96.9695 0 0 0 
280 1 1 23.5806 23.2522 93.3456 0 0 0 
276 3 1 27.6494 25.3552 84.0395 0 0 0 
281 2 1 20.6328 22.4652 96.1436 0 0 0 
282 3 1 19.8515 19.9309 98.5068 0 0 0 
285 3 1 28.907 30.1475 97.8356 0 0 0 
286 1 1 25.9192 23.9757 100.651 0 0 0 
291 3 1 19.5782 26.7454 108.009 0 0 0 
290 2 1 23.1129 25.8754 106.583 0 0 0 
289 1 1 26.237 24.5594 104.39 0 0 0 
292 1 1 27.5546 25.5068 107.83 0 0 0 
287 2 1 22.9121 21.9933 102.736 0 0 0 
288 3 1 19.3232 21.7326 103.173 0 0 0 
300 3 1 29.7592 30.9297 118.444 0 0 0 
297 3 1 36.4341 23.7749 108.699 0 0 0 
294 3 1 23.929 28.0876 113.775 0 0 0 
293 2 1 25.5377 26.4381 111.21 0 0 0 
296 2 1 33.3176 23.9058 110.396 0 0 0 
295 1 1 30.102 26.2916 110.833 0 0 0 
298 1 1 33.0251 26.617 113.455 0 0 0 
301 1 1 36.3718 26.2455 115.462 0 0 0 
302 2 1 38.1534 22.8259 115.371 0 0 0 
304 1 1 39.7494 26.9439 117.297 0 0 0 
299 2 1 32.0558 28.649 116.799 0 0 0 
309 3 1 49.1634 31.8165 115.789 0 0 0 
308 2 1 45.4648 31.7013 117.009 0 0 0 
303 3 1 40.363 20.2283 114.985 0 0 0 
305 2 1 42.1155 24.367 119.427 0 0 0 
306 3 1 43.3909 20.906 119.232 0 0 0 
307 1 1 42.5029 29.4363 118.469 0 0 0 
311 2 1 46.8611 34.2998 120.307 0 0 0 
310 1 1 44.6141 30.9623 121.439 0 0 0 
312 3 1 49.28 36.6463 118.844 0 0 0 
313 1 1 46.1403 31.8489 124.908 0 0 0 
316 1 1 46.9385 31.8241 128.694 0 0 0 
314 2 1 48.7222 34.8208 124.506 0 0 0 
315 3 1 52.3886 33.962 124.79 0 0 0 
318 3 1 50.0368 38.4549 130.135 0 0 0 
317 2 1 48.7837 34.8604 130.248 0 0 0 
319 1 1 47.194 31.3778 132.433 0 0 0 
322 1 1 46.7935 30.4951 136.328 0 0 0 
325 1 1 45.6042 29.7928 139.88 0 0 0 
323 2 1 49.7995 28.2891 138.209 0 0 0 
320 2 1 50.651 32.8362 133.633 0 0 0 
321 3 1 54.2287 33.1342 133.589 0 0 0 
334 1 1 39.6239 24.4631 148.254 0 0 0 
332 2 1 44.8647 24.1244 147.083 0 0 0 
336 3 1 32.8225 25.0308 145.786 0 0 0 
328 1 1 43.2385 28.8045 142.808 0 0 0 
330 3 1 36.266 31.0568 142.093 0 0 0 
329 2 1 39.6907 30.8353 143.033 0 0 0 
331 1 1 41.929 26.5384 145.61 0 0 0 
335 2 1 35.6766 24.3311 148.033 0 0 0 
324 3 1 52.6478 26.3824 139.188 0 0 0 
326 2 1 48.0289 29.5438 143.187 0 0 0 
327 3 1 51.2361 29.9695 145.173 0 0 0 
345 3 1 26.6714 24.0827 156.409 0 0 0 
344 2 1 29.2339 21.8551 155.772 0 0 0 
343 1 1 32.8577 20.1026 156.377 0 0 0 
337 1 1 38.4278 22.3881 151.344 0 0 0 
338 2 1 40.7322 20.1975 153.985 0 0 0 
339 3 1 42.6714 17.1441 155.197 0 0 0 
340 1 1 35.6601 20.8116 153.712 0 0 0 
341 2 1 36.946 17.5381 155.915 0 0 0 
333 3 1 48.0689 23.1722 148.3 0 0 0 
346 1 1 30.664 18.4822 159.243 0 0 0 
347 2 1 27.2566 17.2244 159.146 0 0 0 
342 3 1 38.7598 14.4578 156.588 0 0 0 
348 3 1 23.6626 16.8011 158.205 0 0 0 
ITEM: TIMESTEP
200000
ITEM: NUMBER OF ATOMS
348
ITEM: BOX BOUNDS pp pp pp
-219.465 219.465
-219.465 219.465
-219.465 219.465
ITEM: ATOMS id type mol x y z ix iy iz 
2 2 1 -59.5716 1.06062 -116.716 0 0 0 
3 3 1 -59.3411 0.119772 -113.378 0 0 0 
1 1 1 -58.007 2.57452 -119.927 0 0 0 
4 1 1 -54.8976 1.28466 -118.09 0 0 0 
5 2 1 -51.1939 2.48994 -119.298 0 0 0 
6 3 1 -48.8297 1.80323 -121.716 0 0 0 
36 3 1 -34.153 -27.105 -105.302 0 0 0 
14 2 1 -49.1287 -0.905739 -105.885 0 0 0 
33 3 1 -30.577 -17.4354 -94.9161 0 0 0 
13 1 1 -49.3403 -3.06415 -109.086 0 0 0 
11 2 1 -51.0366 -6.01006 -111.979 0 0 0 
10 1 1 -51.0075 -2.32354 -112.508 0 0 0 
7 1 1 -52.6417 -0.809068 -115.535 0 0 0 
8 2 1 -48.8465 -1.10343 -117.047 0 0 0 
9 3 1 -45.5772 -2.2257 -118.024 0 0 0 
57 3 1 -9.92473 -29.7381 -108.735 0 0 0 
62 2 1 2.13193 -31.8342 -105.151 0 0 0 
61 1 1 -0.0264762 -31.95 -102.184 0 0 0 
65 2 1 5.75153 -34.707 -103.844 0 0 0 
64 1 1 3.18799 -33.3876 -100.886 0 0 0 
66 3 1 7.18614 -36.7787 -106.388 0 0 0 
69 3 1 8.05083 -41.6527 -100.106 0 0 0 
68 2 1 7.69425 -38.1397 -100.09 0 0 0 
47 2 1 -17.4998 -30.2138 -102.565 0 0 0 
48 3 1 -18.3668 -32.5708 -104.993 0 0 0 
49 1 1 -14.9669 -28.2609 -99.4385 0 0 0 
58 1 1 -3.84514 -30.6865 -102.453 0 0 0 
56 2 1 -7.88805 -29.4708 -105.598 0 0 0 
52 1 1 -11.0976 -29.1534 -100.111 0 0 0 
55 1 1 -7.55375 -29.7978 -101.504 0 0 0 
63 3 1 2.9383 -30.5204 -108.782 0 0 0 
59 2 1 -2.81431 -30.9511 -105.991 0 0 0 
60 3 1 -3.74719 -32.4921 -109.357 0 0 0 
27 3 1 -36.7728 -19.3423 -106.341 0 0 0 
26 2 1 -38.7662 -16.2668 -105.775 0 0 0 
32 2 1 -33.2638 -18.1542 -97.0838 0 0 0 
31 1 1 -35.1693 -18.2052 -100.16 0 0 0 
34 1 1 -32.7324 -21.0742 -100.951 0 0 0 
37 1 1 -29.3832 -23.0441 -100.003 0 0 0 
38 2 1 -27.8462 -23.2079 -96.2015 0 0 0 
35 2 1 -32.9427 -23.7087 -103.955 0 0 0 
41 2 1 -24.3069 -26.1796 -103.192 0 0 0 