ITEM: TIMESTEP
0
ITEM: NUMBER OF ATOMS
378
ITEM: BOX BOUNDS pp pp pp
-225.598 225.598
-225.598 225.598
-225.598 225.598
ITEM: ATOMS id type mol x y z ix iy iz 
1 1 1 -36.6493 -45.475 -220.417 0 0 0 
2 2 1 -40.0388 -45.5335 -218.546 0 0 0 
3 3 1 -43.4849 -46.2394 -217.304 0 0 0 
5 2 1 -32.5363 -45.679 -217.797 0 0 0 
6 3 1 -28.9491 -46.6499 -216.971 0 0 0 
4 1 1 -36.0637 -44.7398 -216.899 0 0 0 
12 3 1 -27.778 -45.1795 -209.935 0 0 0 
7 1 1 -35.4782 -44.0046 -213.38 0 0 0 
8 2 1 -38.8677 -44.0631 -211.509 0 0 0 
9 3 1 -42.3138 -44.7691 -210.267 0 0 0 
10 1 1 -34.8927 -43.2695 -209.862 0 0 0 
11 2 1 -31.3652 -44.2087 -210.76 0 0 0 
13 1 1 -34.3072 -42.5343 -206.344 0 0 0 
14 2 1 -37.6967 -42.5928 -204.472 0 0 0 
15 3 1 -41.1427 -43.2987 -203.23 0 0 0 
20 2 1 -36.5256 -41.1225 -197.435 0 0 0 
21 3 1 -39.9717 -41.8284 -196.193 0 0 0 
16 1 1 -33.7216 -41.7991 -202.825 0 0 0 
17 2 1 -30.1942 -42.7383 -203.723 0 0 0 
18 3 1 -26.6069 -43.7092 -202.898 0 0 0 
19 1 1 -33.1361 -41.064 -199.307 0 0 0 
22 1 1 -32.5506 -40.3288 -195.788 0 0 0 
23 2 1 -29.0231 -41.268 -196.686 0 0 0 
24 3 1 -25.4359 -42.2389 -195.861 0 0 0 
26 2 1 -35.3546 -39.6521 -190.399 0 0 0 
27 3 1 -38.8006 -40.3581 -189.156 0 0 0 
25 1 1 -31.965 -39.5937 -192.27 0 0 0 
28 1 1 -31.3795 -38.8585 -188.752 0 0 0 
29 2 1 -27.852 -39.7977 -189.649 0 0 0 
30 3 1 -24.2648 -40.7685 -188.824 0 0 0 
33 3 1 -37.6296 -38.8877 -182.12 0 0 0 
31 1 1 -30.794 -38.1233 -185.233 0 0 0 
32 2 1 -34.1835 -38.1818 -183.362 0 0 0 
34 1 1 -30.2084 -37.3882 -181.715 0 0 0 
35 2 1 -26.681 -38.3274 -182.613 0 0 0 
37 1 1 -29.6229 -36.653 -178.196 0 0 0 
38 2 1 -33.0124 -36.7115 -176.325 0 0 0 
41 2 1 -25.5099 -36.857 -175.576 0 0 0 
36 3 1 -23.0938 -39.2982 -181.787 0 0 0 
39 3 1 -36.4585 -37.4174 -175.083 0 0 0 
45 3 1 -35.2874 -35.9471 -168.046 0 0 0 
40 1 1 -29.0374 -35.9178 -174.678 0 0 0 
43 1 1 -28.4519 -35.1827 -171.16 0 0 0 
44 2 1 -31.8414 -35.2412 -169.288 0 0 0 
42 3 1 -21.9227 -37.8279 -174.75 0 0 0 
47 2 1 -24.3389 -35.3867 -168.539 0 0 0 
48 3 1 -20.7516 -36.3576 -167.714 0 0 0 
46 1 1 -27.8663 -34.4475 -167.641 0 0 0 
49 1 1 -27.2808 -33.7124 -164.123 0 0 0 
50 2 1 -30.6703 -33.7708 -162.251 0 0 0 
51 3 1 -34.1164 -34.4768 -161.009 0 0 0 
52 1 1 -26.6953 -32.9772 -160.604 0 0 0 
55 1 1 -26.1097 -32.242 -157.086 0 0 0 
53 2 1 -23.1678 -33.9164 -161.502 0 0 0 
54 3 1 -19.5806 -34.8872 -160.677 0 0 0 
56 2 1 -29.4992 -32.3005 -155.215 0 0 0 
57 3 1 -32.9453 -33.0064 -153.972 0 0 0 
58 1 1 -25.5242 -31.5069 -153.568 0 0 0 
62 2 1 -28.3282 -30.8302 -148.178 0 0 0 
63 3 1 -31.7742 -31.5361 -146.936 0 0 0 
59 2 1 -21.9967 -32.446 -154.465 0 0 0 
60 3 1 -18.4095 -33.4169 -153.64 0 0 0 
61 1 1 -24.9387 -30.7717 -150.049 0 0 0 
64 1 1 -24.3531 -30.0365 -146.531 0 0 0 
65 2 1 -20.8257 -30.9757 -147.429 0 0 0 
66 3 1 -17.2385 -31.9466 -146.603 0 0 0 
68 2 1 -27.1571 -29.3599 -141.141 0 0 0 
69 3 1 -30.6032 -30.0658 -139.899 0 0 0 
67 1 1 -23.7676 -29.3014 -143.012 0 0 0 
70 1 1 -23.1821 -28.5662 -139.494 0 0 0 
71 2 1 -19.6546 -29.5054 -140.392 0 0 0 
72 3 1 -16.0674 -30.4763 -139.566 0 0 0 
73 1 1 -22.5965 -27.831 -135.976 0 0 0 
74 2 1 -25.9861 -27.8895 -134.104 0 0 0 
75 3 1 -29.4321 -28.5954 -132.862 0 0 0 
81 3 1 -28.2611 -27.1251 -125.825 0 0 0 
76 1 1 -22.011 -27.0959 -132.457 0 0 0 
77 2 1 -18.4836 -28.0351 -133.355 0 0 0 
79 1 1 -21.4255 -26.3607 -128.939 0 0 0 
80 2 1 -24.815 -26.4192 -127.067 0 0 0 
82 1 1 -20.84 -25.6256 -125.42 0 0 0 
83 2 1 -17.3125 -26.5647 -126.318 0 0 0 
78 3 1 -14.8963 -29.0059 -132.53 0 0 0 
84 3 1 -13.7253 -27.5356 -125.493 0 0 0 
87 3 1 -27.09 -25.6548 -118.788 0 0 0 
89 2 1 -16.1414 -25.0944 -119.281 0 0 0 
90 3 1 -12.5542 -26.0653 -118.456 0 0 0 
85 1 1 -20.2544 -24.8904 -121.902 0 0 0 
86 2 1 -23.6439 -24.9489 -120.031 0 0 0 
88 1 1 -19.6689 -24.1552 -118.384 0 0 0 
93 3 1 -25.9189 -24.1845 -111.752 0 0 0 
91 1 1 -19.0834 -23.4201 -114.865 0 0 0 
92 2 1 -22.4729 -23.4785 -112.994 0 0 0 
94 1 1 -18.4978 -22.6849 -111.347 0 0 0 
97 1 1 -17.9123 -21.9497 -107.828 0 0 0 
98 2 1 -21.3018 -22.0082 -105.957 0 0 0 
95 2 1 -14.9704 -23.6241 -112.245 0 0 0 
96 3 1 -11.3831 -24.595 -111.419 0 0 0 
99 3 1 -24.7479 -22.7141 -104.715 0 0 0 
100 1 1 -17.3268 -21.2146 -104.31 0 0 0 
103 1 1 -16.7412 -20.4794 -100.792 0 0 0 
104 2 1 -20.1307 -20.5379 -98.9203 0 0 0 
105 3 1 -23.5768 -21.2438 -97.6781 0 0 0 
106 1 1 -16.1557 -19.7443 -97.2732 0 0 0 
101 2 1 -13.7993 -22.1538 -105.208 0 0 0 
102 3 1 -10.2121 -23.1246 -104.382 0 0 0 
107 2 1 -12.6282 -20.6834 -98.1709 0 0 0 
108 3 1 -9.04103 -21.6543 -97.3458 0 0 0 
109 1 1 -15.5702 -19.0091 -93.7548 0 0 0 
110 2 1 -18.9597 -19.0676 -91.8835 0 0 0 
111 3 1 -22.4058 -19.7735 -90.6412 0 0 0 
112 1 1 -14.9846 -18.2739 -90.2364 0 0 0 
113 2 1 -11.4572 -19.2131 -91.1341 0 0 0 
114 3 1 -7.86996 -20.184 -90.309 0 0 0 
115 1 1 -14.3991 -17.5388 -86.718 0 0 0 
116 2 1 -17.7886 -17.5972 -84.8467 0 0 0 
117 3 1 -21.2347 -18.3032 -83.6044 0 0 0 
122 2 1 -16.6176 -16.1269 -77.8099 0 0 0 
123 3 1 -20.0636 -16.8328 -76.5677 0 0 0 
118 1 1 -13.8136 -16.8036 -83.1996 0 0 0 
119 2 1 -10.2861 -17.7428 -84.0973 0 0 0 
120 3 1 -6.6989 -18.7136 -83.2722 0 0 0 
121 1 1 -13.228 -16.0684 -79.6812 0 0 0 
124 1 1 -12.6425 -15.3333 -76.1628 0 0 0 
125 2 1 -9.11506 -16.2724 -77.0605 0 0 0 
126 3 1 -5.52784 -17.2433 -76.2353 0 0 0 
129 3 1 -18.8926 -15.3625 -69.5309 0 0 0 
132 3 1 -4.35678 -15.773 -69.1985 0 0 0 
128 2 1 -15.4465 -14.6566 -70.7731 0 0 0 
127 1 1 -12.057 -14.5981 -72.6444 0 0 0 
130 1 1 -11.4715 -13.8629 -69.126 0 0 0 
131 2 1 -7.944 -14.8021 -70.0237 0 0 0 
133 1 1 -10.8859 -13.1278 -65.6076 0 0 0 
135 3 1 -17.7215 -13.8922 -62.4941 0 0 0 
141 3 1 -16.5505 -12.4218 -55.4573 0 0 0 
134 2 1 -14.2754 -13.1863 -63.7363 0 0 0 
136 1 1 -10.3004 -12.3926 -62.0892 0 0 0 
137 2 1 -6.77294 -13.3318 -62.9869 0 0 0 
139 1 1 -9.71487 -11.6575 -58.5708 0 0 0 
140 2 1 -13.1044 -11.7159 -56.6995 0 0 0 
143 2 1 -5.60187 -11.8615 -55.9501 0 0 0 
138 3 1 -3.18572 -14.3027 -62.1617 0 0 0 
147 3 1 -15.3794 -10.9515 -48.4205 0 0 0 
142 1 1 -9.12934 -10.9223 -55.0524 0 0 0 
145 1 1 -8.54381 -10.1871 -51.534 0 0 0 
146 2 1 -11.9333 -10.2456 -49.6627 0 0 0 
148 1 1 -7.95828 -9.45196 -48.0156 0 0 0 
144 3 1 -2.01466 -12.8323 -55.1249 0 0 0 
149 2 1 -4.43081 -10.3911 -48.9133 0 0 0 
150 3 1 -0.843596 -11.362 -48.0881 0 0 0 
151 1 1 -7.37275 -8.7168 -44.4972 0 0 0 
152 2 1 -10.7623 -8.77528 -42.6259 0 0 0 
153 3 1 -14.2083 -9.4812 -41.3836 0 0 0 
154 1 1 -6.78722 -7.98163 -40.9788 0 0 0 
157 1 1 -6.20169 -7.24647 -37.4604 0 0 0 
158 2 1 -9.59121 -7.30495 -35.5891 0 0 0 
155 2 1 -3.25975 -8.92082 -41.8765 0 0 0 
156 3 1 0.327464 -9.89168 -41.0513 0 0 0 
159 3 1 -13.0373 -8.01088 -34.3468 0 0 0 
160 1 1 -5.61616 -6.51131 -33.942 0 0 0 
163 1 1 -5.03063 -5.77614 -30.4236 0 0 0 
164 2 1 -8.42014 -5.83463 -28.5523 0 0 0 
165 3 1 -11.8662 -6.54055 -27.31 0 0 0 
161 2 1 -2.08869 -7.45049 -34.8397 0 0 0 
162 3 1 1.49853 -8.42135 -34.0145 0 0 0 
166 1 1 -4.4451 -5.04098 -26.9052 0 0 0 
167 2 1 -0.91763 -5.98017 -27.8029 0 0 0 
168 3 1 2.66959 -6.95103 -26.9778 0 0 0 
171 3 1 -10.6951 -5.07022 -20.2732 0 0 0 
174 3 1 3.84065 -5.4807 -19.9409 0 0 0 
170 2 1 -7.24908 -4.3643 -21.5155 0 0 0 
169 1 1 -3.85956 -4.30582 -23.3868 0 0 0 
172 1 1 -3.27403 -3.57065 -19.8684 0 0 0 
173 2 1 0.253431 -4.50984 -20.7661 0 0 0 
175 1 1 -2.6885 -2.83549 -16.35 0 0 0 
176 2 1 -6.07802 -2.89397 -14.4787 0 0 0 
177 3 1 -9.52409 -3.5999 -13.2364 0 0 0 
183 3 1 -8.35303 -2.12957 -6.19964 0 0 0 
178 1 1 -2.10297 -2.10033 -12.8316 0 0 0 
179 2 1 1.42449 -3.03951 -13.7293 0 0 0 
180 3 1 5.01171 -4.01037 -12.9041 0 0 0 
181 1 1 -1.51744 -1.36516 -9.31319 0 0 0 
182 2 1 -4.90696 -1.42365 -7.44193 0 0 0 
184 1 1 -0.931911 -0.629998 -5.79479 0 0 0 
185 2 1 2.59555 -1.56918 -6.69249 0 0 0 
186 3 1 6.18277 -2.54004 -5.86735 0 0 0 
189 3 1 -7.18197 -0.659241 0.837158 0 0 0 
187 1 1 -0.34638 0.105164 -2.27638 0 0 0 
188 2 1 -3.7359 0.046681 -0.405124 0 0 0 
190 1 1 0.23915 0.840328 1.24202 0 0 0 
191 2 1 3.76661 -0.098857 0.344313 0 0 0 
193 1 1 0.82468 1.57549 4.76042 0 0 0 
192 3 1 7.35383 -1.06972 1.16945 0 0 0 
195 3 1 -6.01091 0.811085 7.87396 0 0 0 
194 2 1 -2.56484 1.51701 6.63168 0 0 0 
196 1 1 1.41021 2.31066 8.27882 0 0 0 
197 2 1 4.93768 1.37147 7.38111 0 0 0 
199 1 1 1.99574 3.04582 11.7972 0 0 0 
200 2 1 -1.39377 2.98733 13.6685 0 0 0 
201 3 1 -4.83985 2.28141 14.9108 0 0 0 
198 3 1 8.52489 0.400609 8.20626 0 0 0 
203 2 1 6.10874 2.8418 14.4179 0 0 0 
202 1 1 2.58127 3.78098 15.3156 0 0 0 
205 1 1 3.1668 4.51615 18.834 0 0 0 
206 2 1 -0.222713 4.45766 20.7053 0 0 0 
207 3 1 -3.66878 3.75174 21.9476 0 0 0 
204 3 1 9.69595 1.87094 15.2431 0 0 0 
209 2 1 7.2798 4.31212 21.4547 0 0 0 
210 3 1 10.867 3.34126 22.2798 0 0 0 
208 1 1 3.75233 5.25131 22.3524 0 0 0 
216 3 1 12.0381 4.81159 29.3167 0 0 0 
211 1 1 4.33786 5.98647 25.8708 0 0 0 
212 2 1 0.948347 5.92799 27.7421 0 0 0 
213 3 1 -2.49772 5.22207 28.9844 0 0 0 
214 1 1 4.9234 6.72164 29.3892 0 0 0 
218 2 1 2.11941 7.39832 34.7789 0 0 0 
215 2 1 8.45086 5.78245 28.4915 0 0 0 
217 1 1 5.50893 7.4568 32.9076 0 0 0 
219 3 1 -1.32666 6.69239 36.0212 0 0 0 
224 2 1 3.29047 8.86864 41.8157 0 0 0 
225 3 1 -0.155599 8.16272 43.058 0 0 0 
220 1 1 6.09446 8.19196 36.426 0 0 0 
221 2 1 9.62192 7.25278 35.5283 0 0 0 
222 3 1 13.2091 6.28192 36.3535 0 0 0 
223 1 1 6.67999 8.92713 39.9444 0 0 0 
226 1 1 7.26552 9.66229 43.4628 0 0 0 
227 2 1 10.793 8.72311 42.5651 0 0 0 
228 3 1 14.3802 7.75224 43.3903 0 0 0 
230 2 1 4.46153 10.339 48.8525 0 0 0 
231 3 1 1.01546 9.63305 50.0948 0 0 0 
229 1 1 7.85105 10.3974 46.9812 0 0 0 
232 1 1 8.43658 11.1326 50.4996 0 0 0 
233 2 1 11.964 10.1934 49.6019 0 0 0 
235 1 1 9.02211 11.8678 54.018 0 0 0 
234 3 1 15.5513 9.22257 50.4271 0 0 0 
237 3 1 2.18652 11.1034 57.1316 0 0 0 
243 3 1 3.35758 12.5737 64.1684 0 0 0 
236 2 1 5.63259 11.8093 55.8893 0 0 0 
238 1 1 9.60764 12.6029 57.5364 0 0 0 
239 2 1 13.1351 11.6638 56.6387 0 0 0 
241 1 1 10.1932 13.3381 61.0548 0 0 0 
242 2 1 6.80365 13.2796 62.9261 0 0 0 
244 1 1 10.7787 14.0733 64.5732 0 0 0 
245 2 1 14.3062 13.1341 63.6755 0 0 0 
240 3 1 16.7223 10.6929 57.4639 0 0 0 
246 3 1 17.8934 12.1632 64.5007 0 0 0 
249 3 1 4.52865 14.044 71.2052 0 0 0 
247 1 1 11.3642 14.8084 68.0916 0 0 0 
248 2 1 7.97472 14.75 69.9629 0 0 0 
251 2 1 15.4772 14.6044 70.7123 0 0 0 
252 3 1 19.0644 13.6335 71.5375 0 0 0 
250 1 1 11.9498 15.5436 71.61 0 0 0 
253 1 1 12.5353 16.2788 75.1284 0 0 0 
254 2 1 9.14578 16.2203 76.9997 0 0 0 
255 3 1 5.69971 15.5144 78.242 0 0 0 
256 1 1 13.1208 17.0139 78.6468 0 0 0 
259 1 1 13.7064 17.7491 82.1652 0 0 0 
260 2 1 10.3168 17.6906 84.0365 0 0 0 
257 2 1 16.6483 16.0747 77.7491 0 0 0 
258 3 1 20.2355 15.1039 78.5743 0 0 0 
263 2 1 17.8194 17.5451 84.7859 0 0 0 
261 3 1 6.87077 16.9847 85.2788 0 0 0 
262 1 1 14.2919 18.4842 85.6836 0 0 0 
265 1 1 14.8774 19.2194 89.202 0 0 0 
266 2 1 11.4879 19.1609 91.0733 0 0 0 
267 3 1 8.04183 18.455 92.3156 0 0 0 
264 3 1 21.4066 16.5742 85.6111 0 0 0 
268 1 1 15.4629 19.9546 92.7204 0 0 0 
269 2 1 18.9904 19.0154 91.8227 0 0 0 
270 3 1 22.5776 18.0445 92.6479 0 0 0 
272 2 1 12.659 20.6313 98.1101 0 0 0 
273 3 1 9.21289 19.9253 99.3524 0 0 0 
278 2 1 13.83 22.1016 105.147 0 0 0 
271 1 1 16.0485 20.6897 96.2388 0 0 0 
274 1 1 16.634 21.4249 99.7572 0 0 0 
275 2 1 20.1615 20.4857 98.8595 0 0 0 
276 3 1 23.7487 19.5149 99.6847 0 0 0 
277 1 1 17.2195 22.1601 103.276 0 0 0 
279 3 1 10.384 21.3957 106.389 0 0 0 
284 2 1 15.0011 23.5719 112.184 0 0 0 
285 3 1 11.555 22.866 113.426 0 0 0 
280 1 1 17.8051 22.8952 106.794 0 0 0 
281 2 1 21.3325 21.956 105.896 0 0 0 
282 3 1 24.9198 20.9852 106.721 0 0 0 
283 1 1 18.3906 23.6304 110.312 0 0 0 
286 1 1 18.9761 24.3656 113.831 0 0 0 
287 2 1 22.5036 23.4264 112.933 0 0 0 
288 3 1 26.0908 22.4555 113.758 0 0 0 
291 3 1 12.7261 24.3363 120.463 0 0 0 
290 2 1 16.1721 25.0422 119.22 0 0 0 
293 2 1 23.6747 24.8967 119.97 0 0 0 
294 3 1 27.2619 23.9258 120.795 0 0 0 
289 1 1 19.5617 25.1007 117.349 0 0 0 
292 1 1 20.1472 25.8359 120.868 0 0 0 
295 1 1 20.7327 26.571 124.386 0 0 0 
297 3 1 13.8971 25.8066 127.499 0 0 0 
296 2 1 17.3432 26.5126 126.257 0 0 0 
298 1 1 21.3182 27.3062 127.904 0 0 0 
299 2 1 24.8457 26.367 127.007 0 0 0 
301 1 1 21.9038 28.0414 131.423 0 0 0 
302 2 1 18.5143 27.9829 133.294 0 0 0 
303 3 1 15.0682 27.277 134.536 0 0 0 
304 1 1 22.4893 28.7765 134.941 0 0 0 
300 3 1 28.4329 25.3962 127.832 0 0 0 
305 2 1 26.0168 27.8374 134.043 0 0 0 
306 3 1 29.604 26.8665 134.869 0 0 0 
307 1 1 23.0748 29.5117 138.46 0 0 0 
308 2 1 19.6853 29.4532 140.331 0 0 0 
309 3 1 16.2393 28.7473 141.573 0 0 0 
310 1 1 23.6604 30.2469 141.978 0 0 0 
311 2 1 27.1878 29.3077 141.08 0 0 0 
312 3 1 30.7751 28.3368 141.905 0 0 0 
313 1 1 24.2459 30.982 145.496 0 0 0 
314 2 1 20.8564 30.9235 147.368 0 0 0 
315 3 1 17.4103 30.2176 148.61 0 0 0 
316 1 1 24.8314 31.7172 149.015 0 0 0 
320 2 1 22.0275 32.3939 154.405 0 0 0 
317 2 1 28.3589 30.778 148.117 0 0 0 
318 3 1 31.9461 29.8072 148.942 0 0 0 
319 1 1 25.417 32.4524 152.533 0 0 0 
323 2 1 29.53 32.2483 155.154 0 0 0 
321 3 1 18.5814 31.688 155.647 0 0 0 
326 2 1 23.1985 33.8642 161.441 0 0 0 
327 3 1 19.7524 33.1583 162.684 0 0 0 
322 1 1 26.0025 33.1875 156.052 0 0 0 
324 3 1 33.1172 31.2775 155.979 0 0 0 
325 1 1 26.588 33.9227 159.57 0 0 0 
328 1 1 27.1736 34.6579 163.088 0 0 0 
329 2 1 30.701 33.7187 162.191 0 0 0 
330 3 1 34.2882 32.7478 163.016 0 0 0 
333 3 1 20.9235 34.6286 169.72 0 0 0 
336 3 1 35.4593 34.2181 170.053 0 0 0 
332 2 1 24.3696 35.3345 168.478 0 0 0 
331 1 1 27.7591 35.393 166.607 0 0 0 
334 1 1 28.3446 36.1282 170.125 0 0 0 
335 2 1 31.8721 35.189 169.227 0 0 0 
337 1 1 28.9302 36.8633 173.644 0 0 0 
339 3 1 22.0946 36.0989 176.757 0 0 0 
345 3 1 23.2656 37.5693 183.794 0 0 0 
338 2 1 25.5406 36.8049 175.515 0 0 0 
340 1 1 29.5157 37.5985 177.162 0 0 0 
341 2 1 33.0431 36.6593 176.264 0 0 0 
343 1 1 30.1012 38.3337 180.68 0 0 0 
344 2 1 26.7117 38.2752 182.552 0 0 0 
346 1 1 30.6867 39.0688 184.199 0 0 0 
347 2 1 34.2142 38.1296 183.301 0 0 0 
342 3 1 36.6304 35.6885 177.089 0 0 0 
348 3 1 37.8014 37.1588 184.126 0 0 0 
351 3 1 24.4367 39.0396 190.831 0 0 0 
349 1 1 31.2723 39.804 187.717 0 0 0 
350 2 1 27.8828 39.7455 189.589 0 0 0 
352 1 1 31.8578 40.5391 191.236 0 0 0 
355 1 1 32.4433 41.2743 194.754 0 0 0 
353 2 1 35.3853 39.6 190.338 0 0 0 
354 3 1 38.9725 38.6291 191.163 0 0 0 
356 2 1 29.0538 41.2158 196.625 0 0 0 
357 3 1 25.6077 40.5099 197.868 0 0 0 
358 1 1 33.0289 42.0095 198.272 0 0 0 
361 1 1 33.6144 42.7446 201.791 0 0 0 
362 2 1 30.2249 42.6862 203.662 0 0 0 
363 3 1 26.7788 41.9802 204.904 0 0 0 
364 1 1 34.1999 43.4798 205.309 0 0 0 
359 2 1 36.5563 41.0703 197.375 0 0 0 
360 3 1 40.1435 40.0994 198.2 0 0 0 
365 2 1 37.7274 42.5406 204.411 0 0 0 
366 3 1 41.3146 41.5698 205.237 0 0 0 
367 1 1 34.7855 44.215 208.828 0 0 0 
368 2 1 31.3959 44.1565 210.699 0 0 0 
369 3 1 27.9499 43.4506 211.941 0 0 0 
370 1 1 35.371 44.9501 212.346 0 0 0 
371 2 1 38.8984 44.011 211.448 0 0 0 
372 3 1 42.4857 43.0401 212.273 0 0 0 
375 3 1 29.1209 44.9209 218.978 0 0 0 
378 3 1 43.6567 44.5104 219.31 0 0 0 
374 2 1 32.567 45.6268 217.736 0 0 0 
373 1 1 35.9565 45.6853 215.864 0 0 0 
376 1 1 36.5421 46.4205 219.383 0 0 0 
377 2 1 40.0695 45.4813 218.485 0 0 0 
ITEM: TIMESTEP
100000
ITEM: NUMBER OF ATOMS
378
ITEM: BOX BOUNDS pp pp pp
-225.598 225.598
-225.598 225.598
-225.598 225.598
ITEM: ATOMS id type mol x y z ix iy iz 
6 3 1 -5.12968 -70.7463 -152.261 0 0 0 
1 1 1 -5.69909 -61.1655 -152.022 0 0 0 
2 2 1 -4.57256 -59.5919 -148.499 0 0 0 
4 1 1 -4.90268 -64.1891 -149.814 0 0 0 
5 2 1 -3.60741 -67.6776 -151.024 0 0 0 
3 3 1 -2.40308 -57.4013 -146.254 0 0 0 
13 1 1 -3.32 -69.2429 -139.701 0 0 0 
11 2 1 -1.33877 -70.5755 -143.827 0 0 0 
18 3 1 1.53624 -77.3046 -136.792 0 0 0 
12 3 1 0.363312 -73.473 -142.538 0 0 0 
7 1 1 -4.37109 -65.4735 -146.156 0 0 0 
10 1 1 -3.63345 -67.4412 -143.021 0 0 0 
9 3 1 -3.83674 -61.0943 -141.345 0 0 0 
8 2 1 -5.94014 -63.0448 -143.415 0 0 0 
15 3 1 -7.83855 -64.8559 -136.311 0 0 0 
21 3 1 -4.55407 -80.7898 -132.635 0 0 0 
14 2 1 -6.07478 -67.7685 -137.347 0 0 0 
16 1 1 -3.11596 -71.629 -136.6 0 0 0 
17 2 1 -1.09451 -75.0099 -136.962 0 0 0 
19 1 1 -3.87308 -73.6864 -133.448 0 0 0 
22 1 1 -4.21148 -74.4602 -129.57 0 0 0 
20 2 1 -5.17623 -77.3913 -133.322 0 0 0 
24 3 1 1.13806 -71.5003 -125.173 0 0 0 
23 2 1 -0.93412 -73.7927 -127.137 0 0 0 
25 1 1 -5.47939 -75.403 -125.975 0 0 0 
26 2 1 -7.18031 -78.7537 -124.639 0 0 0 
27 3 1 -7.56814 -82.3346 -124.393 0 0 0 
28 1 1 -6.35605 -76.0471 -122.184 0 0 0 
31 1 1 -7.90964 -75.6632 -118.629 0 0 0 
30 3 1 -2.41057 -81.2314 -118.418 0 0 0 
29 2 1 -4.80847 -79.1545 -120.5 0 0 0 
42 3 1 -20.6461 -69.5946 -109.684 0 0 0 
41 2 1 -16.8939 -69.8375 -110.237 0 0 0 
40 1 1 -14.0933 -71.9316 -109.95 0 0 0 
38 2 1 -10.4333 -74.7818 -108.955 0 0 0 
34 1 1 -10.1209 -74.4577 -115.813 0 0 0 
37 1 1 -11.7197 -73.5515 -112.477 0 0 0 
43 1 1 -15.2578 -71.7235 -106.298 0 0 0 
32 2 1 -7.21099 -78.1762 -115.487 0 0 0 
33 3 1 -5.72088 -78.2224 -112.336 0 0 0 
35 2 1 -13.4298 -72.5549 -116.657 0 0 0 
36 3 1 -16.9971 -73.0476 -115.298 0 0 0 
39 3 1 -9.51198 -78.1671 -107.421 0 0 0 
45 3 1 -14.342 -77.4264 -104.399 0 0 0 
47 2 1 -21.306 -70.2442 -103.65 0 0 0 
48 3 1 -24.232 -68.5414 -104.672 0 0 0 
50 2 1 -21.4968 -67.9464 -99.0416 0 0 0 
49 1 1 -17.8331 -67.7008 -100.557 0 0 0 
46 1 1 -17.4206 -70.1344 -103.57 0 0 0 
53 2 1 -16.5537 -61.4671 -97.638 0 0 0 
52 1 1 -18.548 -64.8738 -98.2042 0 0 0 
56 2 1 -19.1067 -59.2082 -95.3136 0 0 0 
55 1 1 -20.4603 -63.0996 -95.3188 0 0 0 
44 2 1 -14.2751 -73.817 -103.333 0 0 0 
57 3 1 -19.421 -56.6856 -98.123 0 0 0 
60 3 1 -30.202 -64.1619 -93.9365 0 0 0 
51 3 1 -24.6462 -66.4715 -98.3594 0 0 0 
64 1 1 -28.3552 -58.3119 -88.4451 0 0 0 
61 1 1 -25.1589 -59.1308 -90.5483 0 0 0 
62 2 1 -24.8204 -55.6592 -88.7171 0 0 0 
58 1 1 -23.1313 -61.6214 -92.8774 0 0 0 
59 2 1 -27.0183 -62.9035 -92.9237 0 0 0 
67 1 1 -30.3127 -55.2818 -86.9148 0 0 0 
54 3 1 -13.6458 -59.7122 -95.9499 0 0 0 
63 3 1 -25.6018 -52.4632 -86.8226 0 0 0 
71 2 1 -29.3367 -49.0749 -84.9144 0 0 0 
72 3 1 -26.4788 -47.3914 -83.7712 0 0 0 
93 3 1 -44.8214 -25.0478 -86.4087 0 0 0 
99 3 1 -46.4356 -18.1621 -84.1027 0 0 0 
65 2 1 -31.4012 -60.2482 -86.757 0 0 0 
66 3 1 -33.277 -61.8199 -84.2805 0 0 0 
69 3 1 -37.0549 -53.8589 -84.5379 0 0 0 
68 2 1 -34.3029 -55.5089 -85.9045 0 0 0 
77 2 1 -32.5866 -43.1527 -81.6306 0 0 0 
76 1 1 -35.3247 -45.9468 -82.896 0 0 0 
70 1 1 -31.6559 -51.7627 -85.8988 0 0 0 
74 2 1 -38.2687 -48.9916 -85.8569 0 0 0 
73 1 1 -34.2059 -49.0816 -84.8803 0 0 0 
79 1 1 -37.3864 -42.8144 -81.4955 0 0 0 
80 2 1 -41.0467 -43.4716 -79.9571 0 0 0 
81 3 1 -44.0123 -44.7876 -81.0709 0 0 0 
82 1 1 -37.9632 -39.1386 -80.6768 0 0 0 
85 1 1 -38.6255 -35.3122 -80.0226 0 0 0 
88 1 1 -39.7246 -31.539 -80.1153 0 0 0 
91 1 1 -41.3173 -27.976 -80.454 0 0 0 
94 1 1 -41.6802 -24.4878 -78.6369 0 0 0 
92 2 1 -43.2681 -25.7245 -83.2817 0 0 0 
89 2 1 -38.7775 -29.3213 -77.0572 0 0 0 
101 2 1 -46.0154 -15.7207 -79.4048 0 0 0 
102 3 1 -46.089 -13.3188 -81.8603 0 0 0 
103 1 1 -44.9639 -14.679 -74.8093 0 0 0 
97 1 1 -42.6924 -20.9013 -77.9678 0 0 0 
100 1 1 -44.0391 -17.748 -76.7693 0 0 0 
98 2 1 -45.0805 -19.2344 -80.7766 0 0 0 
95 2 1 -40.1684 -23.5844 -75.3419 0 0 0 
104 2 1 -48.3514 -12.7525 -75.9196 0 0 0 
105 3 1 -51.5474 -11.1323 -75.672 0 0 0 
111 3 1 -54.3452 -9.04107 -69.5942 0 0 0 
78 3 1 -30.9348 -40.1276 -81.4214 0 0 0 
75 3 1 -41.5622 -50.5477 -85.9078 0 0 0 
83 2 1 -34.4695 -37.2055 -80.203 0 0 0 
84 3 1 -31.3587 -35.56 -78.6485 0 0 0 
86 2 1 -36.5946 -33.4461 -77.0386 0 0 0 
87 3 1 -33.6993 -31.9725 -75.392 0 0 0 
90 3 1 -39.147 -28.3737 -73.3652 0 0 0 
107 2 1 -42.4956 -11.7688 -69.2176 0 0 0 
96 3 1 -37.8099 -22.677 -72.8114 0 0 0 
108 3 1 -40.9407 -12.6893 -66.2625 0 0 0 
110 2 1 -50.6369 -7.93569 -69.4895 0 0 0 
106 1 1 -45.32 -12.1294 -71.8881 0 0 0 
109 1 1 -46.8213 -9.43666 -69.4101 0 0 0 
113 2 1 -42.3257 -6.37919 -65.1152 0 0 0 
112 1 1 -46.1229 -6.99043 -66.3593 0 0 0 
115 1 1 -46.5218 -4.54988 -63.377 0 0 0 
117 3 1 -52.7992 -4.31865 -60.6732 0 0 0 
116 2 1 -49.7191 -3.43603 -62.2871 0 0 0 
114 3 1 -39.1344 -6.43445 -63.5605 0 0 0 
119 2 1 -48.0265 -2.8284 -56.9279 0 0 0 
120 3 1 -50.2491 -2.16084 -54.0877 0 0 0 
118 1 1 -46.0762 -2.13852 -60.3529 0 0 0 
121 1 1 -45.1873 0.55947 -57.6623 0 0 0 
125 2 1 -45.9163 -1.26662 -51.3755 0 0 0 
122 2 1 -44.4851 4.50114 -57.6303 0 0 0 
124 1 1 -45.0326 1.75972 -53.9618 0 0 0 
126 3 1 -48.1243 -3.25225 -49.3577 0 0 0 
123 3 1 -42.8856 7.45279 -59.5932 0 0 0 
127 1 1 -44.3624 3.79389 -50.8902 0 0 0 
128 2 1 -40.9326 5.27715 -49.5004 0 0 0 
129 3 1 -38.6346 7.26418 -47.3432 0 0 0 
130 1 1 -44.9451 5.29475 -47.4259 0 0 0 
132 3 1 -48.5323 0.975731 -43.737 0 0 0 
131 2 1 -47.6129 4.2222 -44.9156 0 0 0 
134 2 1 -45.4203 6.92338 -41.2611 0 0 0 
133 1 1 -43.7531 7.47189 -44.5326 0 0 0 
136 1 1 -41.7638 9.52895 -41.8868 0 0 0 
137 2 1 -37.7265 8.97906 -41.5929 0 0 0 
138 3 1 -35.1945 8.29894 -39.294 0 0 0 
144 3 1 -31.1138 11.0804 -36.8065 0 0 0 
135 3 1 -45.8322 5.26161 -38.2714 0 0 0 
139 1 1 -40.542 11.9795 -39.0359 0 0 0 
140 2 1 -42.9612 14.6601 -36.8138 0 0 0 
142 1 1 -38.0608 14.0137 -37.0003 0 0 0 
141 3 1 -42.859 18.4057 -36.658 0 0 0 
146 2 1 -37.6585 20.5096 -34.0098 0 0 0 
143 2 1 -33.9947 13.0799 -36.7938 0 0 0 
145 1 1 -36.2791 16.8375 -34.8852 0 0 0 
148 1 1 -33.2199 18.6284 -33.1448 0 0 0 
151 1 1 -29.8886 20.4645 -32.6048 0 0 0 
152 2 1 -26.8522 18.192 -33.9034 0 0 0 
153 3 1 -24.4624 15.502 -33.1319 0 0 0 
147 3 1 -39.1994 22.1316 -31.0473 0 0 0 
149 2 1 -33.7045 20.8835 -29.7467 0 0 0 
150 3 1 -32.7207 23.7956 -27.4996 0 0 0 
154 1 1 -26.9034 22.5193 -31.5579 0 0 0 
155 2 1 -27.44 25.4599 -28.8256 0 0 0 
156 3 1 -28.7033 29.0753 -28.4792 0 0 0 
159 3 1 -20.9691 19.3647 -33.0231 0 0 0 
157 1 1 -23.2444 23.92 -31.1435 0 0 0 
158 2 1 -19.7124 22.3953 -31.0831 0 0 0 
160 1 1 -20.7613 26.8439 -30.0931 0 0 0 
163 1 1 -17.9815 29.1084 -28.456 0 0 0 
166 1 1 -16.1887 32.1524 -26.9403 0 0 0 
167 2 1 -17.9478 35.7382 -27.3515 0 0 0 
168 3 1 -18.6395 39.2618 -28.4295 0 0 0 
174 3 1 -7.1447 39.6353 -28.022 0 0 0 
173 2 1 -10.509 39.9007 -26.419 0 0 0 
177 3 1 -4.05886 43.8302 -24.4542 0 0 0 
162 3 1 -24.3058 33.2247 -29.5413 0 0 0 
161 2 1 -22.5199 30.3004 -29.1822 0 0 0 
164 2 1 -13.9876 28.7366 -29.0806 0 0 0 
165 3 1 -10.2406 29.4765 -28.9776 0 0 0 
169 1 1 -13.7501 34.6011 -25.0056 0 0 0 
170 2 1 -10.8298 32.7289 -23.1178 0 0 0 
172 1 1 -11.6419 37.4583 -23.5648 0 0 0 
171 3 1 -10.5104 29.8974 -20.4655 0 0 0 
175 1 1 -9.15339 39.9389 -21.7684 0 0 0 
182 2 1 -0.0281549 43.9213 -18.0636 0 0 0 
178 1 1 -6.50847 41.9053 -19.7307 0 0 0 
176 2 1 -7.29536 42.6004 -23.7527 0 0 0 
179 2 1 -6.08258 45.967 -19.6715 0 0 0 
180 3 1 -3.78323 48.5173 -18.4484 0 0 0 
181 1 1 -3.73661 42.7903 -17.3511 0 0 0 
183 3 1 3.48901 43.3006 -18.8365 0 0 0 
189 3 1 8.33371 43.8748 -11.8395 0 0 0 
188 2 1 4.75263 44.8495 -11.9059 0 0 0 
184 1 1 -1.47065 43.1858 -14.244 0 0 0 
187 1 1 0.685479 44.2457 -11.2923 0 0 0 
190 1 1 2.1237 45.6412 -7.90625 0 0 0 
185 2 1 -3.43554 43.7349 -10.667 0 0 0 
186 3 1 -4.98558 46.4653 -8.48475 0 0 0 
194 2 1 0.352526 47.8135 -1.07379 0 0 0 
195 3 1 -2.29423 50.0453 -0.684918 0 0 0 
191 2 1 6.16581 46.1534 -7.17465 0 0 0 
193 1 1 2.66102 47.1535 -4.41071 0 0 0 
200 2 1 4.07002 52.1651 4.65447 0 0 0 
192 3 1 9.58931 45.3746 -7.24069 0 0 0 
197 2 1 8.84963 49.804 -2.43793 0 0 0 
196 1 1 4.96273 48.8628 -1.71874 0 0 0 
198 3 1 12.3025 50.7194 -1.70324 0 0 0 
199 1 1 5.99246 50.0522 1.708 0 0 0 
202 1 1 8.75226 50.5147 4.4816 0 0 0 
203 2 1 11.2726 53.6833 4.35424 0 0 0 
204 3 1 11.0417 57.5352 4.1326 0 0 0 
201 3 1 3.15408 55.837 5.25404 0 0 0 
207 3 1 14.1602 56.7811 8.60542 0 0 0 
219 3 1 27.0162 44.5247 11.3293 0 0 0 
210 3 1 10.5041 52.6344 17.951 0 0 0 
209 2 1 11.8635 51.4087 14.6112 0 0 0 
205 1 1 11.0018 50.0943 7.70513 0 0 0 
208 1 1 12.7016 49.2924 11.1993 0 0 0 
206 2 1 12.616 53.4122 9.10926 0 0 0 
211 1 1 14.918 47.5735 13.9878 0 0 0 
216 3 1 16.4177 44.5619 23.128 0 0 0 
218 2 1 24.6238 43.6779 14.2587 0 0 0 
235 1 1 41.1399 40.8589 25.9282 0 0 0 
236 2 1 44.8248 41.3004 24.4273 0 0 0 
237 3 1 47.0819 42.8416 21.9376 0 0 0 
240 3 1 49.9069 42.7379 26.5323 0 0 0 
213 3 1 12.3181 40.8901 16.6603 0 0 0 
212 2 1 13.6528 44.2825 16.1646 0 0 0 
214 1 1 17.8819 45.7721 15.7904 0 0 0 
215 2 1 17.2644 44.159 19.4822 0 0 0 
217 1 1 21.5468 44.7545 16.7923 0 0 0 
220 1 1 24.2739 43.913 19.2897 0 0 0 
221 2 1 23.5037 45.3026 22.9906 0 0 0 
223 1 1 27.7891 42.9654 20.7412 0 0 0 
224 2 1 29.9427 44.3967 23.9179 0 0 0 
226 1 1 31.083 40.6993 20.5304 0 0 0 
227 2 1 32.2936 37.975 17.6959 0 0 0 
228 3 1 33.6062 35.3452 15.673 0 0 0 
229 1 1 34.3483 40.0321 22.5242 0 0 0 
232 1 1 37.894 40.754 23.921 0 0 0 
233 2 1 39.9328 42.3916 21.3472 0 0 0 
234 3 1 40.9793 44.4555 18.1415 0 0 0 
222 3 1 21.2334 46.4898 25.547 0 0 0 
238 1 1 43.8646 41.2652 28.753 0 0 0 
242 2 1 50.2386 42.2207 31.6266 0 0 0 
241 1 1 46.1332 41.9355 32.0074 0 0 0 
244 1 1 47.5739 42.2881 35.6667 0 0 0 
239 2 1 46.7978 43.9833 27.9689 0 0 0 
243 3 1 53.8446 42.7608 30.5453 0 0 0 
225 3 1 31.9831 47.0258 25.6971 0 0 0 
230 2 1 33.3946 41.103 26.4166 0 0 0 
231 3 1 32.164 41.0946 29.6049 0 0 0 
246 3 1 43.8167 45.0641 41.5008 0 0 0 
245 2 1 45.4759 43.06 38.6237 0 0 0 
248 2 1 53.7822 43.6412 39.1825 0 0 0 
247 1 1 50.064 42.1033 38.6626 0 0 0 
250 1 1 51.6554 41.4886 42.1372 0 0 0 
251 2 1 55.284 40.7497 42.629 0 0 0 
252 3 1 58.749 39.4764 42.0437 0 0 0 
249 3 1 57.337 43.0013 38.4746 0 0 0 
253 1 1 51.1996 41.5201 45.9733 0 0 0 
258 3 1 55.2583 38.2421 54.9356 0 0 0 
257 2 1 53.8862 40.1519 52.3899 0 0 0 
261 3 1 53.539 40.3222 58.8405 0 0 0 
260 2 1 51.419 42.244 56.8547 0 0 0 
259 1 1 49.5256 42.5654 53.3615 0 0 0 
256 1 1 51.1109 41.6408 49.8322 0 0 0 
262 1 1 47.0505 44.1833 55.9253 0 0 0 
254 2 1 47.2796 41.7556 47.135 0 0 0 
255 3 1 43.7662 43.1805 47.441 0 0 0 
267 3 1 50.7011 43.5054 65.2595 0 0 0 
271 1 1 41.9219 46.3719 65.8937 0 0 0 
266 2 1 47.8534 43.7275 62.6165 0 0 0 
263 2 1 43.5395 46.1825 55.6727 0 0 0 
265 1 1 45.7368 45.02 59.2857 0 0 0 
268 1 1 43.5717 46.1318 62.3579 0 0 0 
264 3 1 41.6619 45.2042 52.542 0 0 0 
269 2 1 40.866 49.0168 61.6666 0 0 0 
285 3 1 41.1868 31.6441 73.6939 0 0 0 
284 2 1 41.6944 34.5777 75.5338 0 0 0 
276 3 1 48.4026 45.2236 70.1654 0 0 0 
280 1 1 40.1472 41.4686 75.7295 0 0 0 
277 1 1 40.5161 44.3272 73.187 0 0 0 
275 2 1 44.6961 44.0875 70.8564 0 0 0 
274 1 1 41.1265 45.5648 69.5727 0 0 0 
278 2 1 39.8207 45.9116 76.9092 0 0 0 
283 1 1 39.9589 37.9216 76.8491 0 0 0 
272 2 1 38.5799 48.2609 66.6814 0 0 0 
273 3 1 35.0923 48.3292 65.7107 0 0 0 
270 3 1 39.5462 50.8969 58.6974 0 0 0 
294 3 1 30.8678 24.9651 84.1395 0 0 0 
289 1 1 36.6629 33.646 82.2625 0 0 0 
293 2 1 33.8427 27.3096 84.5164 0 0 0 
292 1 1 34.8931 31.1354 84.675 0 0 0 
290 2 1 36.1675 35.8019 85.3372 0 0 0 
286 1 1 38.4219 35.5127 79.488 0 0 0 
279 3 1 38.2253 46.7042 80.3459 0 0 0 
287 2 1 37.3833 37.7544 82.7927 0 0 0 
281 2 1 39.659 41.6031 79.4327 0 0 0 
282 3 1 40.3901 42.1862 82.9753 0 0 0 
288 3 1 35.3543 40.4226 83.8499 0 0 0 
304 1 1 26.2403 22.7393 93.9316 0 0 0 
303 3 1 23.7252 22.3251 86.8411 0 0 0 
302 2 1 24.8574 23.78 89.7367 0 0 0 
299 2 1 31.1021 27.8189 93.9616 0 0 0 
300 3 1 32.5181 25.8322 96.5172 0 0 0 
301 1 1 28.1927 25.1345 91.72 0 0 0 
305 2 1 28.4182 21.3516 97.105 0 0 0 
306 3 1 30.3738 18.5256 98.7558 0 0 0 
298 1 1 30.6621 27.683 89.8983 0 0 0 
297 3 1 35.3837 32.3461 94.7538 0 0 0 
296 2 1 33.5235 31.2573 91.7547 0 0 0 
295 1 1 33.1068 29.927 87.9098 0 0 0 
291 3 1 36.466 36.02 88.9262 0 0 0 
311 2 1 23.3058 17.2698 101.135 0 0 0 
312 3 1 21.7884 13.9101 101.988 0 0 0 
315 3 1 11.5117 19.3063 100.087 0 0 0 
314 2 1 14.905 18.8174 101.786 0 0 0 
313 1 1 18.7222 17.51 101.068 0 0 0 
310 1 1 21.2087 19.2777 98.6653 0 0 0 
309 3 1 16.8956 21.8315 92.3576 0 0 0 
308 2 1 19.762 20.7792 94.4082 0 0 0 
307 1 1 23.3631 20.9905 95.9372 0 0 0 
327 3 1 23.8011 4.60712 113.368 0 0 0 
326 2 1 20.3156 5.32199 113.443 0 0 0 
318 3 1 11.5242 15.2032 108.824 0 0 0 
324 3 1 10.4402 11.473 112.093 0 0 0 
323 2 1 13.8225 10.858 111.311 0 0 0 
325 1 1 17.0333 6.98875 111.629 0 0 0 
319 1 1 17.0901 11.8067 105.541 0 0 0 
317 2 1 13.5823 15.3981 105.656 0 0 0 
322 1 1 16.7001 9.53422 108.617 0 0 0 
320 2 1 20.0847 9.16532 104.352 0 0 0 
316 1 1 17.0189 15.0537 103.404 0 0 0 
321 3 1 23.5651 8.89632 103.011 0 0 0 
332 2 1 10.5647 0.554997 114.531 0 0 0 
333 3 1 7.86176 0.707055 112.296 0 0 0 
337 1 1 11.7537 -2.95441 121.809 0 0 0 
331 1 1 13.8452 1.5935 116.051 0 0 0 
329 2 1 18.7494 2.6412 117.095 0 0 0 
328 1 1 16.3082 4.18396 114.326 0 0 0 
334 1 1 12.796 -0.480473 119.079 0 0 0 
336 3 1 18.0043 -3.48749 123.128 0 0 0 
335 2 1 15.8736 -2.46176 120.548 0 0 0 
330 3 1 21.0125 4.3204 119.107 0 0 0 
341 2 1 8.93398 -8.13315 125.798 0 0 0 
342 3 1 5.93557 -10.1742 125.879 0 0 0 
343 1 1 13.4804 -8.11538 127.133 0 0 0 
347 2 1 12.1337 -9.07706 133.297 0 0 0 
346 1 1 14.2144 -10.0944 130.32 0 0 0 
348 3 1 12.3838 -5.89104 135.296 0 0 0 
345 3 1 20.2972 -9.45543 125.272 0 0 0 
344 2 1 17.4257 -9.10661 127.205 0 0 0 
339 3 1 5.2212 -4.61422 125.212 0 0 0 
338 2 1 8.16124 -4.59652 122.979 0 0 0 
340 1 1 11.8355 -5.75889 124.481 0 0 0 
377 2 1 6.81224 -37.9198 149.095 0 0 0 
378 3 1 9.16949 -38.8952 146.263 0 0 0 
360 3 1 5.71464 -22.2565 133.048 0 0 0 
359 2 1 7.65738 -22.6777 136.02 0 0 0 
355 1 1 13.0357 -18.2525 137.316 0 0 0 
358 1 1 10.4438 -20.9 138.303 0 0 0 
361 1 1 9.19262 -23.4007 140.889 0 0 0 
352 1 1 14.9641 -15.4424 135.617 0 0 0 
349 1 1 15.5116 -12.52 133.051 0 0 0 
350 2 1 18.9208 -13.6264 134.362 0 0 0 
353 2 1 17.3594 -17.0468 138.53 0 0 0 
351 3 1 22.0271 -15.9444 134.536 0 0 0 
376 1 1 3.23459 -36.4747 150.53 0 0 0 
372 3 1 -5.26984 -32.9384 144.606 0 0 0 
371 2 1 -1.88212 -32.0705 145.167 0 0 0 
373 1 1 1.7253 -33.3388 148.746 0 0 0 
369 3 1 1.05213 -31.2741 137.107 0 0 0 