ITEM: TIMESTEP
0
ITEM: NUMBER OF ATOMS
390
ITEM: BOX BOUNDS pp pp pp
-227.961 227.961
-227.961 227.961
-227.961 227.961
ITEM: ATOMS id type mol x y z ix iy iz 
1 1 1 -37.8203 -46.9453 -227.454 0 0 0 
2 2 1 -41.2099 -47.0038 -225.583 0 0 0 
3 3 1 -44.6559 -47.7097 -224.34 0 0 0 
4 1 1 -37.2348 -46.2101 -223.936 0 0 0 
5 2 1 -33.7073 -47.1493 -224.833 0 0 0 
6 3 1 -30.1201 -48.1202 -224.008 0 0 0 
7 1 1 -36.6493 -45.475 -220.417 0 0 0 
8 2 1 -40.0388 -45.5335 -218.546 0 0 0 
9 3 1 -43.4849 -46.2394 -217.304 0 0 0 
11 2 1 -32.5363 -45.679 -217.797 0 0 0 
12 3 1 -28.9491 -46.6499 -216.971 0 0 0 
10 1 1 -36.0637 -44.7398 -216.899 0 0 0 
13 1 1 -35.4782 -44.0046 -213.38 0 0 0 
14 2 1 -38.8677 -44.0631 -211.509 0 0 0 
15 3 1 -42.3138 -44.7691 -210.267 0 0 0 
16 1 1 -34.8927 -43.2695 -209.862 0 0 0 
17 2 1 -31.3652 -44.2087 -210.76 0 0 0 
18 3 1 -27.778 -45.1795 -209.935 0 0 0 
20 2 1 -37.6967 -42.5928 -204.472 0 0 0 
21 3 1 -41.1427 -43.2987 -203.23 0 0 0 
19 1 1 -34.3072 -42.5343 -206.344 0 0 0 
22 1 1 -33.7216 -41.7991 -202.825 0 0 0 
23 2 1 -30.1942 -42.7383 -203.723 0 0 0 
24 3 1 -26.6069 -43.7092 -202.898 0 0 0 
25 1 1 -33.1361 -41.064 -199.307 0 0 0 
26 2 1 -36.5256 -41.1225 -197.435 0 0 0 
27 3 1 -39.9717 -41.8284 -196.193 0 0 0 
33 3 1 -38.8006 -40.3581 -189.156 0 0 0 
28 1 1 -32.5506 -40.3288 -195.788 0 0 0 
29 2 1 -29.0231 -41.268 -196.686 0 0 0 
30 3 1 -25.4359 -42.2389 -195.861 0 0 0 
31 1 1 -31.965 -39.5937 -192.27 0 0 0 
32 2 1 -35.3546 -39.6521 -190.399 0 0 0 
34 1 1 -31.3795 -38.8585 -188.752 0 0 0 
35 2 1 -27.852 -39.7977 -189.649 0 0 0 
36 3 1 -24.2648 -40.7685 -188.824 0 0 0 
39 3 1 -37.6296 -38.8877 -182.12 0 0 0 
37 1 1 -30.794 -38.1233 -185.233 0 0 0 
38 2 1 -34.1835 -38.1818 -183.362 0 0 0 
40 1 1 -30.2084 -37.3882 -181.715 0 0 0 
41 2 1 -26.681 -38.3274 -182.613 0 0 0 
43 1 1 -29.6229 -36.653 -178.196 0 0 0 
42 3 1 -23.0938 -39.2982 -181.787 0 0 0 
45 3 1 -36.4585 -37.4174 -175.083 0 0 0 
44 2 1 -33.0124 -36.7115 -176.325 0 0 0 
46 1 1 -29.0374 -35.9178 -174.678 0 0 0 
47 2 1 -25.5099 -36.857 -175.576 0 0 0 
51 3 1 -35.2874 -35.9471 -168.046 0 0 0 
48 3 1 -21.9227 -37.8279 -174.75 0 0 0 
54 3 1 -20.7516 -36.3576 -167.714 0 0 0 
49 1 1 -28.4519 -35.1827 -171.16 0 0 0 
50 2 1 -31.8414 -35.2412 -169.288 0 0 0 
52 1 1 -27.8663 -34.4475 -167.641 0 0 0 
53 2 1 -24.3389 -35.3867 -168.539 0 0 0 
55 1 1 -27.2808 -33.7124 -164.123 0 0 0 
56 2 1 -30.6703 -33.7708 -162.251 0 0 0 
57 3 1 -34.1164 -34.4768 -161.009 0 0 0 
58 1 1 -26.6953 -32.9772 -160.604 0 0 0 
61 1 1 -26.1097 -32.242 -157.086 0 0 0 
59 2 1 -23.1678 -33.9164 -161.502 0 0 0 
60 3 1 -19.5806 -34.8872 -160.677 0 0 0 
62 2 1 -29.4992 -32.3005 -155.215 0 0 0 
63 3 1 -32.9453 -33.0064 -153.972 0 0 0 
64 1 1 -25.5242 -31.5069 -153.568 0 0 0 
68 2 1 -28.3282 -30.8302 -148.178 0 0 0 
69 3 1 -31.7742 -31.5361 -146.936 0 0 0 
65 2 1 -21.9967 -32.446 -154.465 0 0 0 
66 3 1 -18.4095 -33.4169 -153.64 0 0 0 
67 1 1 -24.9387 -30.7717 -150.049 0 0 0 
71 2 1 -20.8257 -30.9757 -147.429 0 0 0 
74 2 1 -27.1571 -29.3599 -141.141 0 0 0 
75 3 1 -30.6032 -30.0658 -139.899 0 0 0 
70 1 1 -24.3531 -30.0365 -146.531 0 0 0 
72 3 1 -17.2385 -31.9466 -146.603 0 0 0 
73 1 1 -23.7676 -29.3014 -143.012 0 0 0 
76 1 1 -23.1821 -28.5662 -139.494 0 0 0 
77 2 1 -19.6546 -29.5054 -140.392 0 0 0 
78 3 1 -16.0674 -30.4763 -139.566 0 0 0 
80 2 1 -25.9861 -27.8895 -134.104 0 0 0 
81 3 1 -29.4321 -28.5954 -132.862 0 0 0 
79 1 1 -22.5965 -27.831 -135.976 0 0 0 
82 1 1 -22.011 -27.0959 -132.457 0 0 0 
83 2 1 -18.4836 -28.0351 -133.355 0 0 0 
85 1 1 -21.4255 -26.3607 -128.939 0 0 0 
86 2 1 -24.815 -26.4192 -127.067 0 0 0 
84 3 1 -14.8963 -29.0059 -132.53 0 0 0 
87 3 1 -28.2611 -27.1251 -125.825 0 0 0 
93 3 1 -27.09 -25.6548 -118.788 0 0 0 
88 1 1 -20.84 -25.6256 -125.42 0 0 0 
89 2 1 -17.3125 -26.5647 -126.318 0 0 0 
90 3 1 -13.7253 -27.5356 -125.493 0 0 0 
96 3 1 -12.5542 -26.0653 -118.456 0 0 0 
91 1 1 -20.2544 -24.8904 -121.902 0 0 0 
92 2 1 -23.6439 -24.9489 -120.031 0 0 0 
94 1 1 -19.6689 -24.1552 -118.384 0 0 0 
95 2 1 -16.1414 -25.0944 -119.281 0 0 0 
99 3 1 -25.9189 -24.1845 -111.752 0 0 0 
97 1 1 -19.0834 -23.4201 -114.865 0 0 0 
98 2 1 -22.4729 -23.4785 -112.994 0 0 0 
100 1 1 -18.4978 -22.6849 -111.347 0 0 0 
103 1 1 -17.9123 -21.9497 -107.828 0 0 0 
101 2 1 -14.9704 -23.6241 -112.245 0 0 0 
102 3 1 -11.3831 -24.595 -111.419 0 0 0 
104 2 1 -21.3018 -22.0082 -105.957 0 0 0 
105 3 1 -24.7479 -22.7141 -104.715 0 0 0 
106 1 1 -17.3268 -21.2146 -104.31 0 0 0 
109 1 1 -16.7412 -20.4794 -100.792 0 0 0 
110 2 1 -20.1307 -20.5379 -98.9203 0 0 0 
111 3 1 -23.5768 -21.2438 -97.6781 0 0 0 
112 1 1 -16.1557 -19.7443 -97.2732 0 0 0 
107 2 1 -13.7993 -22.1538 -105.208 0 0 0 
108 3 1 -10.2121 -23.1246 -104.382 0 0 0 
113 2 1 -12.6282 -20.6834 -98.1709 0 0 0 
114 3 1 -9.04103 -21.6543 -97.3458 0 0 0 
115 1 1 -15.5702 -19.0091 -93.7548 0 0 0 
116 2 1 -18.9597 -19.0676 -91.8835 0 0 0 
117 3 1 -22.4058 -19.7735 -90.6412 0 0 0 
118 1 1 -14.9846 -18.2739 -90.2364 0 0 0 
119 2 1 -11.4572 -19.2131 -91.1341 0 0 0 
120 3 1 -7.86996 -20.184 -90.309 0 0 0 
121 1 1 -14.3991 -17.5388 -86.718 0 0 0 
122 2 1 -17.7886 -17.5972 -84.8467 0 0 0 
123 3 1 -21.2347 -18.3032 -83.6044 0 0 0 
128 2 1 -16.6176 -16.1269 -77.8099 0 0 0 
129 3 1 -20.0636 -16.8328 -76.5677 0 0 0 
124 1 1 -13.8136 -16.8036 -83.1996 0 0 0 
125 2 1 -10.2861 -17.7428 -84.0973 0 0 0 
126 3 1 -6.6989 -18.7136 -83.2722 0 0 0 
127 1 1 -13.228 -16.0684 -79.6812 0 0 0 
130 1 1 -12.6425 -15.3333 -76.1628 0 0 0 
131 2 1 -9.11506 -16.2724 -77.0605 0 0 0 
132 3 1 -5.52784 -17.2433 -76.2353 0 0 0 
135 3 1 -18.8926 -15.3625 -69.5309 0 0 0 
138 3 1 -4.35678 -15.773 -69.1985 0 0 0 
134 2 1 -15.4465 -14.6566 -70.7731 0 0 0 
133 1 1 -12.057 -14.5981 -72.6444 0 0 0 
136 1 1 -11.4715 -13.8629 -69.126 0 0 0 
137 2 1 -7.944 -14.8021 -70.0237 0 0 0 
141 3 1 -17.7215 -13.8922 -62.4941 0 0 0 
139 1 1 -10.8859 -13.1278 -65.6076 0 0 0 
140 2 1 -14.2754 -13.1863 -63.7363 0 0 0 
142 1 1 -10.3004 -12.3926 -62.0892 0 0 0 
143 2 1 -6.77294 -13.3318 -62.9869 0 0 0 
145 1 1 -9.71487 -11.6575 -58.5708 0 0 0 
146 2 1 -13.1044 -11.7159 -56.6995 0 0 0 
149 2 1 -5.60187 -11.8615 -55.9501 0 0 0 
144 3 1 -3.18572 -14.3027 -62.1617 0 0 0 
147 3 1 -16.5505 -12.4218 -55.4573 0 0 0 
153 3 1 -15.3794 -10.9515 -48.4205 0 0 0 
148 1 1 -9.12934 -10.9223 -55.0524 0 0 0 
151 1 1 -8.54381 -10.1871 -51.534 0 0 0 
152 2 1 -11.9333 -10.2456 -49.6627 0 0 0 
154 1 1 -7.95828 -9.45196 -48.0156 0 0 0 
150 3 1 -2.01466 -12.8323 -55.1249 0 0 0 
155 2 1 -4.43081 -10.3911 -48.9133 0 0 0 
156 3 1 -0.843596 -11.362 -48.0881 0 0 0 
157 1 1 -7.37275 -8.7168 -44.4972 0 0 0 
158 2 1 -10.7623 -8.77528 -42.6259 0 0 0 
159 3 1 -14.2083 -9.4812 -41.3836 0 0 0 
160 1 1 -6.78722 -7.98163 -40.9788 0 0 0 
163 1 1 -6.20169 -7.24647 -37.4604 0 0 0 
164 2 1 -9.59121 -7.30495 -35.5891 0 0 0 
161 2 1 -3.25975 -8.92082 -41.8765 0 0 0 
162 3 1 0.327464 -9.89168 -41.0513 0 0 0 
165 3 1 -13.0373 -8.01088 -34.3468 0 0 0 
166 1 1 -5.61616 -6.51131 -33.942 0 0 0 
170 2 1 -8.42014 -5.83463 -28.5523 0 0 0 
171 3 1 -11.8662 -6.54055 -27.31 0 0 0 
167 2 1 -2.08869 -7.45049 -34.8397 0 0 0 
168 3 1 1.49853 -8.42135 -34.0145 0 0 0 
169 1 1 -5.03063 -5.77614 -30.4236 0 0 0 
173 2 1 -0.91763 -5.98017 -27.8029 0 0 0 
174 3 1 2.66959 -6.95103 -26.9778 0 0 0 
172 1 1 -4.4451 -5.04098 -26.9052 0 0 0 
177 3 1 -10.6951 -5.07022 -20.2732 0 0 0 
180 3 1 3.84065 -5.4807 -19.9409 0 0 0 
176 2 1 -7.24908 -4.3643 -21.5155 0 0 0 
175 1 1 -3.85956 -4.30582 -23.3868 0 0 0 
178 1 1 -3.27403 -3.57065 -19.8684 0 0 0 
179 2 1 0.253431 -4.50984 -20.7661 0 0 0 
181 1 1 -2.6885 -2.83549 -16.35 0 0 0 
182 2 1 -6.07802 -2.89397 -14.4787 0 0 0 
183 3 1 -9.52409 -3.5999 -13.2364 0 0 0 
189 3 1 -8.35303 -2.12957 -6.19964 0 0 0 
184 1 1 -2.10297 -2.10033 -12.8316 0 0 0 
185 2 1 1.42449 -3.03951 -13.7293 0 0 0 
186 3 1 5.01171 -4.01037 -12.9041 0 0 0 
187 1 1 -1.51744 -1.36516 -9.31319 0 0 0 
188 2 1 -4.90696 -1.42365 -7.44193 0 0 0 
190 1 1 -0.931911 -0.629998 -5.79479 0 0 0 
191 2 1 2.59555 -1.56918 -6.69249 0 0 0 
192 3 1 6.18277 -2.54004 -5.86735 0 0 0 
195 3 1 -7.18197 -0.659241 0.837158 0 0 0 
193 1 1 -0.34638 0.105164 -2.27638 0 0 0 
194 2 1 -3.7359 0.046681 -0.405124 0 0 0 
196 1 1 0.23915 0.840328 1.24202 0 0 0 
197 2 1 3.76661 -0.098857 0.344313 0 0 0 
199 1 1 0.82468 1.57549 4.76042 0 0 0 
198 3 1 7.35383 -1.06972 1.16945 0 0 0 
201 3 1 -6.01091 0.811085 7.87396 0 0 0 
200 2 1 -2.56484 1.51701 6.63168 0 0 0 
202 1 1 1.41021 2.31066 8.27882 0 0 0 
203 2 1 4.93768 1.37147 7.38111 0 0 0 
205 1 1 1.99574 3.04582 11.7972 0 0 0 
206 2 1 -1.39377 2.98733 13.6685 0 0 0 
207 3 1 -4.83985 2.28141 14.9108 0 0 0 
204 3 1 8.52489 0.400609 8.20626 0 0 0 
209 2 1 6.10874 2.8418 14.4179 0 0 0 
208 1 1 2.58127 3.78098 15.3156 0 0 0 
211 1 1 3.1668 4.51615 18.834 0 0 0 
212 2 1 -0.222713 4.45766 20.7053 0 0 0 
213 3 1 -3.66878 3.75174 21.9476 0 0 0 
210 3 1 9.69595 1.87094 15.2431 0 0 0 
215 2 1 7.2798 4.31212 21.4547 0 0 0 
216 3 1 10.867 3.34126 22.2798 0 0 0 
214 1 1 3.75233 5.25131 22.3524 0 0 0 
222 3 1 12.0381 4.81159 29.3167 0 0 0 
217 1 1 4.33786 5.98647 25.8708 0 0 0 
218 2 1 0.948347 5.92799 27.7421 0 0 0 
219 3 1 -2.49772 5.22207 28.9844 0 0 0 
220 1 1 4.9234 6.72164 29.3892 0 0 0 
224 2 1 2.11941 7.39832 34.7789 0 0 0 
221 2 1 8.45086 5.78245 28.4915 0 0 0 
223 1 1 5.50893 7.4568 32.9076 0 0 0 
225 3 1 -1.32666 6.69239 36.0212 0 0 0 
230 2 1 3.29047 8.86864 41.8157 0 0 0 
231 3 1 -0.155599 8.16272 43.058 0 0 0 
226 1 1 6.09446 8.19196 36.426 0 0 0 
227 2 1 9.62192 7.25278 35.5283 0 0 0 
228 3 1 13.2091 6.28192 36.3535 0 0 0 
229 1 1 6.67999 8.92713 39.9444 0 0 0 
232 1 1 7.26552 9.66229 43.4628 0 0 0 
233 2 1 10.793 8.72311 42.5651 0 0 0 
234 3 1 14.3802 7.75224 43.3903 0 0 0 
236 2 1 4.46153 10.339 48.8525 0 0 0 
237 3 1 1.01546 9.63305 50.0948 0 0 0 
235 1 1 7.85105 10.3974 46.9812 0 0 0 
238 1 1 8.43658 11.1326 50.4996 0 0 0 
239 2 1 11.964 10.1934 49.6019 0 0 0 
241 1 1 9.02211 11.8678 54.018 0 0 0 
240 3 1 15.5513 9.22257 50.4271 0 0 0 
243 3 1 2.18652 11.1034 57.1316 0 0 0 
249 3 1 3.35758 12.5737 64.1684 0 0 0 
242 2 1 5.63259 11.8093 55.8893 0 0 0 
244 1 1 9.60764 12.6029 57.5364 0 0 0 
245 2 1 13.1351 11.6638 56.6387 0 0 0 
247 1 1 10.1932 13.3381 61.0548 0 0 0 
248 2 1 6.80365 13.2796 62.9261 0 0 0 
250 1 1 10.7787 14.0733 64.5732 0 0 0 
251 2 1 14.3062 13.1341 63.6755 0 0 0 
246 3 1 16.7223 10.6929 57.4639 0 0 0 
252 3 1 17.8934 12.1632 64.5007 0 0 0 
255 3 1 4.52865 14.044 71.2052 0 0 0 
253 1 1 11.3642 14.8084 68.0916 0 0 0 
254 2 1 7.97472 14.75 69.9629 0 0 0 
257 2 1 15.4772 14.6044 70.7123 0 0 0 
258 3 1 19.0644 13.6335 71.5375 0 0 0 
256 1 1 11.9498 15.5436 71.61 0 0 0 
259 1 1 12.5353 16.2788 75.1284 0 0 0 
264 3 1 20.2355 15.1039 78.5743 0 0 0 
260 2 1 9.14578 16.2203 76.9997 0 0 0 
261 3 1 5.69971 15.5144 78.242 0 0 0 
262 1 1 13.1208 17.0139 78.6468 0 0 0 
265 1 1 13.7064 17.7491 82.1652 0 0 0 
266 2 1 10.3168 17.6906 84.0365 0 0 0 
267 3 1 6.87077 16.9847 85.2788 0 0 0 
268 1 1 14.2919 18.4842 85.6836 0 0 0 
263 2 1 16.6483 16.0747 77.7491 0 0 0 
269 2 1 17.8194 17.5451 84.7859 0 0 0 
270 3 1 21.4066 16.5742 85.6111 0 0 0 
271 1 1 14.8774 19.2194 89.202 0 0 0 
272 2 1 11.4879 19.1609 91.0733 0 0 0 
273 3 1 8.04183 18.455 92.3156 0 0 0 
274 1 1 15.4629 19.9546 92.7204 0 0 0 
275 2 1 18.9904 19.0154 91.8227 0 0 0 
276 3 1 22.5776 18.0445 92.6479 0 0 0 
277 1 1 16.0485 20.6897 96.2388 0 0 0 
278 2 1 12.659 20.6313 98.1101 0 0 0 
279 3 1 9.21289 19.9253 99.3524 0 0 0 
284 2 1 13.83 22.1016 105.147 0 0 0 
280 1 1 16.634 21.4249 99.7572 0 0 0 
281 2 1 20.1615 20.4857 98.8595 0 0 0 
282 3 1 23.7487 19.5149 99.6847 0 0 0 
283 1 1 17.2195 22.1601 103.276 0 0 0 
287 2 1 21.3325 21.956 105.896 0 0 0 
285 3 1 10.384 21.3957 106.389 0 0 0 
290 2 1 15.0011 23.5719 112.184 0 0 0 
291 3 1 11.555 22.866 113.426 0 0 0 
286 1 1 17.8051 22.8952 106.794 0 0 0 
288 3 1 24.9198 20.9852 106.721 0 0 0 
289 1 1 18.3906 23.6304 110.312 0 0 0 
292 1 1 18.9761 24.3656 113.831 0 0 0 
293 2 1 22.5036 23.4264 112.933 0 0 0 
294 3 1 26.0908 22.4555 113.758 0 0 0 
297 3 1 12.7261 24.3363 120.463 0 0 0 
295 1 1 19.5617 25.1007 117.349 0 0 0 
296 2 1 16.1721 25.0422 119.22 0 0 0 
299 2 1 23.6747 24.8967 119.97 0 0 0 
300 3 1 27.2619 23.9258 120.795 0 0 0 
298 1 1 20.1472 25.8359 120.868 0 0 0 
301 1 1 20.7327 26.571 124.386 0 0 0 
302 2 1 17.3432 26.5126 126.257 0 0 0 
303 3 1 13.8971 25.8066 127.499 0 0 0 
309 3 1 15.0682 27.277 134.536 0 0 0 
304 1 1 21.3182 27.3062 127.904 0 0 0 
305 2 1 24.8457 26.367 127.007 0 0 0 
307 1 1 21.9038 28.0414 131.423 0 0 0 
308 2 1 18.5143 27.9829 133.294 0 0 0 
310 1 1 22.4893 28.7765 134.941 0 0 0 
306 3 1 28.4329 25.3962 127.832 0 0 0 
311 2 1 26.0168 27.8374 134.043 0 0 0 
312 3 1 29.604 26.8665 134.869 0 0 0 
313 1 1 23.0748 29.5117 138.46 0 0 0 
314 2 1 19.6853 29.4532 140.331 0 0 0 
315 3 1 16.2393 28.7473 141.573 0 0 0 
316 1 1 23.6604 30.2469 141.978 0 0 0 
319 1 1 24.2459 30.982 145.496 0 0 0 
317 2 1 27.1878 29.3077 141.08 0 0 0 
318 3 1 30.7751 28.3368 141.905 0 0 0 
320 2 1 20.8564 30.9235 147.368 0 0 0 
321 3 1 17.4103 30.2176 148.61 0 0 0 
322 1 1 24.8314 31.7172 149.015 0 0 0 
326 2 1 22.0275 32.3939 154.405 0 0 0 
327 3 1 18.5814 31.688 155.647 0 0 0 
323 2 1 28.3589 30.778 148.117 0 0 0 
324 3 1 31.9461 29.8072 148.942 0 0 0 
325 1 1 25.417 32.4524 152.533 0 0 0 
328 1 1 26.0025 33.1875 156.052 0 0 0 
329 2 1 29.53 32.2483 155.154 0 0 0 
330 3 1 33.1172 31.2775 155.979 0 0 0 
332 2 1 23.1985 33.8642 161.441 0 0 0 
333 3 1 19.7524 33.1583 162.684 0 0 0 
331 1 1 26.588 33.9227 159.57 0 0 0 
334 1 1 27.1736 34.6579 163.088 0 0 0 
335 2 1 30.701 33.7187 162.191 0 0 0 
336 3 1 34.2882 32.7478 163.016 0 0 0 
337 1 1 27.7591 35.393 166.607 0 0 0 
338 2 1 24.3696 35.3345 168.478 0 0 0 
339 3 1 20.9235 34.6286 169.72 0 0 0 
341 2 1 31.8721 35.189 169.227 0 0 0 
342 3 1 35.4593 34.2181 170.053 0 0 0 
345 3 1 22.0946 36.0989 176.757 0 0 0 
340 1 1 28.3446 36.1282 170.125 0 0 0 
343 1 1 28.9302 36.8633 173.644 0 0 0 
344 2 1 25.5406 36.8049 175.515 0 0 0 
346 1 1 29.5157 37.5985 177.162 0 0 0 
347 2 1 33.0431 36.6593 176.264 0 0 0 
348 3 1 36.6304 35.6885 177.089 0 0 0 
351 3 1 23.2656 37.5693 183.794 0 0 0 
349 1 1 30.1012 38.3337 180.68 0 0 0 
350 2 1 26.7117 38.2752 182.552 0 0 0 
352 1 1 30.6867 39.0688 184.199 0 0 0 
353 2 1 34.2142 38.1296 183.301 0 0 0 
354 3 1 37.8014 37.1588 184.126 0 0 0 
357 3 1 24.4367 39.0396 190.831 0 0 0 
355 1 1 31.2723 39.804 187.717 0 0 0 
356 2 1 27.8828 39.7455 189.589 0 0 0 
358 1 1 31.8578 40.5391 191.236 0 0 0 
359 2 1 35.3853 39.6 190.338 0 0 0 
361 1 1 32.4433 41.2743 194.754 0 0 0 
362 2 1 29.0538 41.2158 196.625 0 0 0 
360 3 1 38.9725 38.6291 191.163 0 0 0 
365 2 1 36.5563 41.0703 197.375 0 0 0 
363 3 1 25.6077 40.5099 197.868 0 0 0 
364 1 1 33.0289 42.0095 198.272 0 0 0 
367 1 1 33.6144 42.7446 201.791 0 0 0 
368 2 1 30.2249 42.6862 203.662 0 0 0 
369 3 1 26.7788 41.9802 204.904 0 0 0 
370 1 1 34.1999 43.4798 205.309 0 0 0 
366 3 1 40.1435 40.0994 198.2 0 0 0 
371 2 1 37.7274 42.5406 204.411 0 0 0 
372 3 1 41.3146 41.5698 205.237 0 0 0 
373 1 1 34.7855 44.215 208.828 0 0 0 
374 2 1 31.3959 44.1565 210.699 0 0 0 
375 3 1 27.9499 43.4506 211.941 0 0 0 
376 1 1 35.371 44.9501 212.346 0 0 0 
377 2 1 38.8984 44.011 211.448 0 0 0 
378 3 1 42.4857 43.0401 212.273 0 0 0 
380 2 1 32.567 45.6268 217.736 0 0 0 
379 1 1 35.9565 45.6853 215.864 0 0 0 
381 3 1 29.1209 44.9209 218.978 0 0 0 
383 2 1 40.0695 45.4813 218.485 0 0 0 
384 3 1 43.6567 44.5104 219.31 0 0 0 
386 2 1 33.7381 47.0971 224.773 0 0 0 
387 3 1 30.292 46.3912 226.015 0 0 0 
382 1 1 36.5421 46.4205 219.383 0 0 0 
385 1 1 37.1276 47.1556 222.901 0 0 0 
388 1 1 37.7131 47.8908 226.42 0 0 0 
389 2 1 41.2406 46.9516 225.522 0 0 0 
390 3 1 44.8278 45.9807 226.347 0 0 0 
ITEM: TIMESTEP
100000
ITEM: NUMBER OF ATOMS
390
ITEM: BOX BOUNDS pp pp pp
-227.961 227.961
-227.961 227.961
-227.961 227.961
ITEM: ATOMS id type mol x y z ix iy iz 
1 1 1 -59.4129 -49.463 -159.507 0 0 0 
4 1 1 -59.3518 -47.189 -156.36 0 0 0 
5 2 1 -62.7329 -46.928 -154.258 0 0 0 
6 3 1 -65.8677 -45.207 -153.649 0 0 0 
2 2 1 -55.8066 -47.767 -158.991 0 0 0 
3 3 1 -52.3642 -47.4228 -159.204 0 0 0 
15 3 1 -45.6659 -47.2662 -151.291 0 0 0 
9 3 1 -62.3397 -41.1336 -149.155 0 0 0 
8 2 1 -59.7957 -43.6689 -150.188 0 0 0 
12 3 1 -54.7028 -37.0532 -148.303 0 0 0 
7 1 1 -57.7941 -45.2728 -153.347 0 0 0 
10 1 1 -55.064 -44.2515 -150.892 0 0 0 
13 1 1 -51.9175 -44.0198 -148.733 0 0 0 
11 2 1 -55.0491 -40.7032 -149.147 0 0 0 
14 2 1 -49.0306 -46.8437 -149.538 0 0 0 
16 1 1 -49.6098 -42.7213 -145.955 0 0 0 
17 2 1 -49.753 -39.0851 -144.435 0 0 0 
19 1 1 -47.0763 -43.5215 -143.196 0 0 0 
21 3 1 -43.3999 -48.9304 -139.815 0 0 0 
20 2 1 -44.832 -46.576 -142.425 0 0 0 
22 1 1 -45.1172 -42.6993 -139.991 0 0 0 
25 1 1 -42.4196 -42.4631 -137.234 0 0 0 
26 2 1 -38.7495 -44.0148 -137.766 0 0 0 
27 3 1 -35.9981 -42.4499 -139.896 0 0 0 
18 3 1 -48.962 -35.3286 -144.578 0 0 0 
23 2 1 -47.3671 -40.7752 -137.277 0 0 0 
24 3 1 -49.938 -39.6321 -135.229 0 0 0 
28 1 1 -40.2715 -41.1865 -134.325 0 0 0 
31 1 1 -37.5079 -39.9574 -131.954 0 0 0 
34 1 1 -35.2433 -39.3293 -128.882 0 0 0 
37 1 1 -32.1172 -38.7528 -126.85 0 0 0 
33 3 1 -31.9459 -38.9407 -136.32 0 0 0 
32 2 1 -34.0499 -39.3753 -133.652 0 0 0 
30 3 1 -43.0626 -38.4005 -127.769 0 0 0 
29 2 1 -42.2248 -39.4707 -131.148 0 0 0 
38 2 1 -28.1967 -40.202 -126.994 0 0 0 
39 3 1 -24.8551 -39.6243 -128.127 0 0 0 
35 2 1 -36.7608 -38.1755 -125.632 0 0 0 
36 3 1 -38.7661 -35.953 -123.279 0 0 0 
42 3 1 -29.3986 -29.8617 -121.839 0 0 0 
41 2 1 -30.0545 -33.6231 -122.552 0 0 0 
40 1 1 -29.6442 -37.2391 -124.291 0 0 0 
43 1 1 -26.5697 -36.8603 -122.162 0 0 0 
46 1 1 -23.3585 -35.3574 -120.627 0 0 0 
49 1 1 -19.5437 -35.5649 -119.9 0 0 0 
48 3 1 -22.7308 -28.3026 -117.429 0 0 0 
47 2 1 -22.8777 -31.4483 -119.683 0 0 0 
52 1 1 -15.6581 -35.8985 -120.287 0 0 0 
54 3 1 -12.189 -36.7726 -126.862 0 0 0 
53 2 1 -13.198 -36.3975 -123.524 0 0 0 
56 2 1 -9.13385 -35.7227 -121.945 0 0 0 
57 3 1 -6.98512 -34.9959 -124.473 0 0 0 
44 2 1 -24.1305 -40.0329 -121.216 0 0 0 
45 3 1 -22.3347 -42.7307 -123.137 0 0 0 
50 2 1 -18.0928 -34.5901 -116.185 0 0 0 
51 3 1 -15.8987 -32.6148 -113.761 0 0 0 
55 1 1 -12.071 -35.6976 -119.034 0 0 0 
69 3 1 8.21729 -32.7189 -118.411 0 0 0 
59 2 1 -7.19362 -35.0771 -113.741 0 0 0 
58 1 1 -8.54999 -35.2973 -117.54 0 0 0 
61 1 1 -4.72069 -34.9878 -117.72 0 0 0 
63 3 1 0.724042 -35.8727 -123.43 0 0 0 
62 2 1 -1.7788 -36.0427 -120.564 0 0 0 
64 1 1 -1.2588 -33.8127 -116.176 0 0 0 
68 2 1 5.86076 -33.6511 -116.071 0 0 0 
67 1 1 2.11843 -33.207 -114.553 0 0 0 
70 1 1 4.3187 -32.2754 -111.637 0 0 0 
80 2 1 14.9126 -24.5913 -109.225 0 0 0 
81 3 1 17.2096 -25.7092 -111.739 0 0 0 
86 2 1 21.0731 -22.4233 -102.19 0 0 0 
85 1 1 17.5103 -21.9994 -102.703 0 0 0 
88 1 1 18.6727 -18.6698 -101.026 0 0 0 
87 3 1 23.2051 -25.3071 -100.869 0 0 0 
93 3 1 25.9443 -18.1046 -94.4345 0 0 0 
96 3 1 28.7062 -11.2466 -99.9149 0 0 0 
92 2 1 23.814 -16.3541 -96.9321 0 0 0 
91 1 1 20.4556 -15.7383 -99.1096 0 0 0 
95 2 1 25.2157 -11.164 -99.1676 0 0 0 
60 3 1 -8.2944 -34.0514 -110.401 0 0 0 
66 3 1 -2.87118 -36.6827 -109.717 0 0 0 
65 2 1 -1.36443 -34.3051 -112.157 0 0 0 
71 2 1 3.31192 -32.0897 -107.832 0 0 0 
72 3 1 3.07393 -35.2209 -105.831 0 0 0 
73 1 1 7.1161 -30.7341 -109.416 0 0 0 
74 2 1 7.15348 -31.8729 -105.451 0 0 0 
76 1 1 10.1034 -28.7672 -107.916 0 0 0 
77 2 1 10.0806 -28.5753 -103.794 0 0 0 
75 3 1 7.71291 -34.4765 -102.846 0 0 0 
79 1 1 13.0734 -26.4379 -106.892 0 0 0 
82 1 1 14.8668 -24.1808 -104.394 0 0 0 
83 2 1 13.0299 -21.5263 -101.847 0 0 0 
78 3 1 11.6277 -29.4754 -100.463 0 0 0 
84 3 1 9.96618 -19.6653 -100.559 0 0 0 
89 2 1 15.8143 -15.8319 -101.495 0 0 0 
102 3 1 12.3115 -4.92144 -97.455 0 0 0 
101 2 1 16.0409 -5.27624 -97.7158 0 0 0 
90 3 1 14.402 -13.5237 -104.414 0 0 0 
94 1 1 21.6114 -12.404 -97.6124 0 0 0 
97 1 1 21.4058 -8.70101 -96.6764 0 0 0 
100 1 1 19.6369 -5.44309 -95.6698 0 0 0 
104 2 1 16.2532 -2.15849 -91.0604 0 0 0 
98 2 1 24.3192 -6.30141 -94.9676 0 0 0 
99 3 1 27.964 -4.79784 -94.5846 0 0 0 
103 1 1 17.558 -2.40355 -94.8642 0 0 0 
108 3 1 14.9064 7.58134 -97.1908 0 0 0 
107 2 1 16.1288 4.56949 -96.3565 0 0 0 
106 1 1 15.9274 1.11973 -94.1047 0 0 0 
105 3 1 14.2602 -3.36795 -88.1933 0 0 0 
110 2 1 13.794 3.04247 -88.4075 0 0 0 
109 1 1 13.7497 3.69539 -91.9606 0 0 0 
111 3 1 14.5003 1.02954 -85.1863 0 0 0 
112 1 1 11.4125 6.56798 -90.5453 0 0 0 
118 1 1 7.97073 10.8822 -85.1078 0 0 0 
116 2 1 5.99745 10.5223 -89.5214 0 0 0 
117 3 1 2.38424 11.3171 -90.599 0 0 0 
113 2 1 9.26937 8.74254 -92.5282 0 0 0 
115 1 1 9.4879 8.84263 -88.1077 0 0 0 
114 3 1 9.0513 10.8892 -95.3212 0 0 0 
125 2 1 2.81505 15.2536 -77.4377 0 0 0 
126 3 1 0.743857 18.071 -77.5412 0 0 0 
119 2 1 4.11338 10.4358 -84.2571 0 0 0 
121 1 1 7.67016 12.9422 -81.836 0 0 0 
122 2 1 10.578 14.7764 -79.8857 0 0 0 
127 1 1 6.14177 16.9956 -75.2269 0 0 0 
124 1 1 6.63952 14.7548 -78.4129 0 0 0 
123 3 1 13.0069 15.8287 -77.5563 0 0 0 
120 3 1 0.763582 8.61787 -84.5163 0 0 0 
130 1 1 4.59457 18.0572 -71.8668 0 0 0 
133 1 1 3.04524 17.4524 -68.3595 0 0 0 
129 3 1 10.3026 22.6187 -76.1008 0 0 0 
128 2 1 7.50769 20.1882 -74.9437 0 0 0 
134 2 1 1.92589 20.013 -65.5914 0 0 0 
135 3 1 -0.350601 23.0402 -65.0046 0 0 0 
132 3 1 4.85292 25.0245 -69.5677 0 0 0 
131 2 1 4.11314 21.5984 -70.161 0 0 0 
138 3 1 -2.80528 18.965 -62.0761 0 0 0 
137 2 1 -1.50434 16.1419 -63.8698 0 0 0 
136 1 1 1.4139 15.1924 -65.6343 0 0 0 
141 3 1 -6.93794 12.1015 -62.541 0 0 0 
143 2 1 -0.520037 5.3347 -61.8535 0 0 0 
139 1 1 0.665931 12.1999 -63.3376 0 0 0 
140 2 1 -3.28837 11.6443 -63.047 0 0 0 
142 1 1 1.14595 8.87177 -61.1995 0 0 0 
156 3 1 16.4999 3.2629 -49.1647 0 0 0 
144 3 1 -0.0839517 1.69398 -62.8432 0 0 0 
145 1 1 2.43657 6.97417 -58.1798 0 0 0 
146 2 1 3.29812 3.30946 -58.645 0 0 0 
147 3 1 1.85296 -0.2676 -58.3659 0 0 0 
149 2 1 3.425 5.37324 -50.8086 0 0 0 
148 1 1 4.19025 6.14644 -54.6654 0 0 0 
151 1 1 7.26701 5.75102 -52.5217 0 0 0 
154 1 1 9.66557 5.59447 -49.5304 0 0 0 
152 2 1 10.7444 5.54498 -54.4591 0 0 0 
153 3 1 13.2348 6.88054 -57.0464 0 0 0 
155 2 1 13.7154 5.23909 -49.8016 0 0 0 
150 3 1 3.82758 6.02298 -47.0349 0 0 0 
165 3 1 6.138 7.3092 -35.0407 0 0 0 
164 2 1 9.31081 7.32854 -36.3859 0 0 0 
163 1 1 12.3544 7.37541 -38.8085 0 0 0 
160 1 1 12.2336 5.85374 -42.3031 0 0 0 
157 1 1 11.0658 5.4736 -45.947 0 0 0 
161 2 1 15.6265 4.05627 -41.0433 0 0 0 
158 2 1 14.9958 6.44764 -45.9225 0 0 0 
159 3 1 18.2561 7.12062 -44.3428 0 0 0 
162 3 1 19.3944 3.52891 -40.3759 0 0 0 
171 3 1 5.32289 8.51927 -30.54 0 0 0 
170 2 1 8.60774 9.94477 -30.9315 0 0 0 
172 1 1 11.4082 9.35854 -27.7272 0 0 0 
166 1 1 13.2806 8.61121 -35.1929 0 0 0 
169 1 1 12.5384 8.81446 -31.3749 0 0 0 
167 2 1 16.483 10.7571 -33.7615 0 0 0 
168 3 1 19.4676 11.4196 -32.0988 0 0 0 
183 3 1 -1.31145 13.6975 -20.7813 0 0 0 
177 3 1 1.82295 9.93856 -25.8047 0 0 0 
176 2 1 5.19475 8.7982 -25.3337 0 0 0 
181 1 1 5.29038 12.3147 -18.2882 0 0 0 
178 1 1 7.79919 11.136 -21.0652 0 0 0 
182 2 1 1.61941 14.078 -18.4507 0 0 0 
175 1 1 9.14035 10.036 -24.6168 0 0 0 
179 2 1 10.5601 11.2662 -18.0064 0 0 0 
174 3 1 17.639 8.5069 -24.436 0 0 0 
173 2 1 14.1755 9.55624 -24.7997 0 0 0 
180 3 1 12.3283 13.0371 -15.3732 0 0 0 
189 3 1 -2.53108 18.4944 -10.0266 0 0 0 
188 2 1 -0.858059 15.2561 -11.1596 0 0 0 
192 3 1 -4.89423 14.715 -6.02718 0 0 0 
191 2 1 -2.22661 12.2563 -6.49068 0 0 0 
187 1 1 2.23295 12.5763 -11.4209 0 0 0 
184 1 1 3.79399 12.0921 -14.8501 0 0 0 
185 2 1 4.47878 8.91788 -12.7078 0 0 0 
190 1 1 1.53889 12.1045 -7.59431 0 0 0 
186 3 1 3.78098 5.34841 -12.2783 0 0 0 
198 3 1 -5.59771 9.29283 3.59972 0 0 0 
193 1 1 1.17637 12.0645 -3.57814 0 0 0 
196 1 1 -0.0889102 11.9709 0.0477627 0 0 0 
194 2 1 3.83679 13.5177 -1.45674 0 0 0 
197 2 1 -2.83348 10.0847 1.61362 0 0 0 
199 1 1 0.368105 12.9149 3.86352 0 0 0 
195 3 1 6.85552 15.5119 -0.945862 0 0 0 
200 2 1 2.07376 16.6106 4.38702 0 0 0 
204 3 1 -1.95004 8.68027 12.9466 0 0 0 
203 2 1 0.331978 10.175 10.4027 0 0 0 
202 1 1 0.457828 13.2495 7.69596 0 0 0 
205 1 1 0.603158 14.6185 11.3159 0 0 0 
206 2 1 3.34166 17.3119 12.5398 0 0 0 
208 1 1 0.156241 14.9872 15.144 0 0 0 
201 3 1 2.6329 20.3617 4.73007 0 0 0 
211 1 1 0.725533 15.8165 18.9597 0 0 0 
212 2 1 2.74776 18.7153 21.1093 0 0 0 
214 1 1 -0.314225 14.9431 22.6957 0 0 0 
215 2 1 1.9414 15.2201 26.0518 0 0 0 
216 3 1 5.50792 16.1379 27.1329 0 0 0 
209 2 1 -2.65334 12.7245 16.7355 0 0 0 
210 3 1 -4.0683 10.5029 19.2585 0 0 0 
207 3 1 2.79971 18.4154 15.8788 0 0 0 
213 3 1 3.11727 20.4904 24.5176 0 0 0 
219 3 1 -10.3198 12.1008 24.6718 0 0 0 
220 1 1 -3.82688 12.6412 29.155 0 0 0 
223 1 1 -6.6234 11.9326 31.5694 0 0 0 
224 2 1 -9.99581 14.312 31.998 0 0 0 
225 3 1 -13.5277 15.7964 31.8689 0 0 0 
217 1 1 -2.59531 13.841 25.6555 0 0 0 
218 2 1 -6.58816 13.2571 24.7375 0 0 0 
221 2 1 -1.95727 11.6334 32.4263 0 0 0 
235 1 1 -11.6904 6.31959 44.0984 0 0 0 
236 2 1 -10.9855 2.33436 44.9669 0 0 0 
237 3 1 -9.54658 -0.433145 47.1893 0 0 0 
234 3 1 -17.1183 12.0183 44.1668 0 0 0 
233 2 1 -14.9878 9.36879 42.2254 0 0 0 
231 3 1 -18.903 9.17246 37.0946 0 0 0 
227 2 1 -7.58981 6.34453 35.8012 0 0 0 
226 1 1 -8.56004 10.1232 34.5572 0 0 0 
230 2 1 -15.0655 9.55297 37.5457 0 0 0 
229 1 1 -11.0582 9.10746 37.2351 0 0 0 
232 1 1 -11.7614 7.87794 40.6921 0 0 0 
228 3 1 -5.56042 5.21291 38.5001 0 0 0 
222 3 1 -0.977615 9.16323 35.2192 0 0 0 
255 3 1 3.33586 0.163303 63.8617 0 0 0 
240 3 1 -16.1584 9.75309 52.3078 0 0 0 
239 2 1 -14.359 7.25728 50.079 0 0 0 
243 3 1 -11.0139 6.83282 58.292 0 0 0 
238 1 1 -12.0256 5.56336 47.942 0 0 0 
242 2 1 -11.7502 5.17167 55.3059 0 0 0 
241 1 1 -11.4581 3.89075 51.4368 0 0 0 
244 1 1 -9.82331 1.03252 53.4271 0 0 0 
245 2 1 -10.7686 -2.81901 53.0698 0 0 0 
247 1 1 -6.81554 0.0757807 55.7545 0 0 0 
246 3 1 -10.9218 -6.18228 51.8052 0 0 0 
249 3 1 -3.56086 4.0839 61.4208 0 0 0 
254 2 1 1.04838 -2.12287 61.9182 0 0 0 
256 1 1 -0.235265 -6.20626 61.7665 0 0 0 
261 3 1 6.12183 -13.5474 65.1609 0 0 0 
260 2 1 3.81027 -11.334 63.8201 0 0 0 
259 1 1 2.15772 -7.79828 64.208 0 0 0 
248 2 1 -4.55477 2.40081 58.2195 0 0 0 
250 1 1 -4.06861 -2.0105 57.3908 0 0 0 
253 1 1 -1.63152 -3.3669 59.9144 0 0 0 
252 3 1 -4.4842 -9.08791 55.8386 0 0 0 
251 2 1 -3.33543 -5.76922 56.4873 0 0 0 
257 2 1 -1.05952 -10.1859 61.576 0 0 0 
258 3 1 -0.322003 -13.7765 60.5196 0 0 0 
267 3 1 13.7798 -11.6323 68.1161 0 0 0 
262 1 1 4.44231 -8.02248 67.2945 0 0 0 
265 1 1 6.95265 -8.79253 70.0089 0 0 0 
266 2 1 10.8579 -9.98182 69.8077 0 0 0 
269 2 1 11.5521 -7.6599 75.5419 0 0 0 
268 1 1 7.97412 -8.75663 73.7218 0 0 0 
264 3 1 0.625606 -5.87395 73.6381 0 0 0 
263 2 1 3.01091 -6.35708 70.7003 0 0 0 
270 3 1 13.2002 -4.54238 74.1974 0 0 0 
271 1 1 7.82607 -9.91623 77.4783 0 0 0 
274 1 1 8.153 -10.0239 81.2838 0 0 0 
272 2 1 6.37741 -13.6694 78.4226 0 0 0 
275 2 1 7.9485 -7.63415 84.6558 0 0 0 
277 1 1 9.06322 -12.0588 84.504 0 0 0 
276 3 1 8.71544 -4.4142 85.9368 0 0 0 
273 3 1 6.56569 -16.8913 80.5184 0 0 0 
284 2 1 12.8672 -17.3556 93.0677 0 0 0 
281 2 1 8.67049 -10.137 90.7233 0 0 0 
282 3 1 7.39898 -9.41069 94.0079 0 0 0 
283 1 1 10.0728 -14.6185 91.6561 0 0 0 
286 1 1 8.58238 -15.2032 95.2543 0 0 0 
280 1 1 9.55519 -12.9612 88.1167 0 0 0 
278 2 1 11.1972 -15.2974 83.9589 0 0 0 
279 3 1 13.773 -17.7343 82.9347 0 0 0 
285 3 1 16.5436 -17.1506 92.0328 0 0 0 
291 3 1 11.9065 -13.4827 104.861 0 0 0 
290 2 1 10.6483 -15.1193 102.041 0 0 0 
288 3 1 1.26728 -14.5044 95.9248 0 0 0 
287 2 1 4.83204 -14.0426 95.5883 0 0 0 
289 1 1 8.02283 -15.3985 99.0635 0 0 0 
292 1 1 5.39062 -15.3327 101.942 0 0 0 
293 2 1 1.61454 -13.6507 101.416 0 0 0 
298 1 1 4.00424 -16.2184 109.278 0 0 0 
301 1 1 3.4732 -16.6389 112.992 0 0 0 
295 1 1 4.08578 -15.4264 105.547 0 0 0 
300 3 1 9.95543 -14.7124 113.33 0 0 0 
299 2 1 7.32274 -15.7363 111.089 0 0 0 
294 3 1 -1.84686 -13.6059 100.17 0 0 0 
296 2 1 0.79234 -13.3431 106.809 0 0 0 
297 3 1 -2.30803 -12.0566 105.539 0 0 0 
318 3 1 0.114859 1.08052 125.4 0 0 0 
323 2 1 3.27495 5.46704 117.524 0 0 0 
324 3 1 0.225893 3.61638 116.7 0 0 0 
330 3 1 -0.160214 12.3813 112.45 0 0 0 
329 2 1 3.25307 12.1904 113.492 0 0 0 
331 1 1 7.21366 14.7622 114.885 0 0 0 
332 2 1 8.50331 15.3953 111.045 0 0 0 
335 2 1 9.60689 21.4724 113.387 0 0 0 
336 3 1 12.3802 22.9579 111.337 0 0 0 
333 3 1 5.95616 17.916 109.77 0 0 0 
334 1 1 7.69914 18.5227 115.473 0 0 0 
337 1 1 7.15573 22.0565 117.208 0 0 0 
338 2 1 5.14092 24.9586 115.303 0 0 0 
340 1 1 6.92211 24.9737 119.764 0 0 0 
339 3 1 5.98082 26.2215 111.888 0 0 0 
341 2 1 5.50664 28.7029 119.119 0 0 0 
342 3 1 3.4168 31.3157 118.219 0 0 0 
302 2 1 0.814659 -18.4663 115.589 0 0 0 
304 1 1 4.70684 -16.0599 116.78 0 0 0 
303 3 1 -1.04136 -20.8964 117.489 0 0 0 
309 3 1 8.03822 -15.4593 126.643 0 0 0 
305 2 1 7.61929 -18.2957 118.478 0 0 0 
307 1 1 5.2981 -13.8466 119.855 0 0 0 
308 2 1 6.04759 -14.2573 123.718 0 0 0 
310 1 1 5.29768 -10.3596 121.037 0 0 0 
313 1 1 4.94232 -6.56482 122.036 0 0 0 
311 2 1 6.33326 -9.81736 124.818 0 0 0 
306 3 1 10.1095 -19.7354 120.967 0 0 0 
316 1 1 5.43171 -2.82562 121.352 0 0 0 
317 2 1 2.67479 -0.173342 122.784 0 0 0 
314 2 1 4.85783 -5.28032 125.45 0 0 0 
321 3 1 11.2252 4.37492 116.555 0 0 0 
319 1 1 6.66475 0.603024 120.014 0 0 0 
320 2 1 9.85634 1.01951 117.503 0 0 0 
315 3 1 4.49697 -3.11315 128.168 0 0 0 
322 1 1 6.93652 4.25749 118.982 0 0 0 
328 1 1 6.25448 11.1668 116.03 0 0 0 
325 1 1 6.66267 8.12211 118.295 0 0 0 
326 2 1 7.59025 10.6851 120.429 0 0 0 
327 3 1 9.1382 12.4982 123.437 0 0 0 
343 1 1 7.0991 26.9011 123.116 0 0 0 
346 1 1 7.2615 30.4418 124.618 0 0 0 
347 2 1 7.76977 33.9898 123.037 0 0 0 
349 1 1 7.27362 33.2883 127.352 0 0 0 
345 3 1 8.42218 26.1659 129.933 0 0 0 
344 2 1 7.68357 25.1141 126.442 0 0 0 
348 3 1 10.1953 36.5366 122.83 0 0 0 
353 2 1 13.2941 36.3952 128.865 0 0 0 
354 3 1 15.8164 38.776 127.237 0 0 0 
312 3 1 8.98852 -9.87831 127.684 0 0 0 
351 3 1 3.19521 38.4965 129.897 0 0 0 
350 2 1 4.51701 34.9872 129.862 0 0 0 