ITEM: TIMESTEP
0
ITEM: NUMBER OF ATOMS
432
ITEM: BOX BOUNDS pp pp pp
-235.867 235.867
-235.867 235.867
-235.867 235.867
ITEM: ATOMS id type mol x y z ix iy iz 
15 3 1 -46.4125 -49.9152 -234.896 0 0 0 
21 3 1 -45.2415 -48.4449 -227.859 0 0 0 
16 1 1 -38.9914 -48.4156 -234.491 0 0 0 
17 2 1 -35.4639 -49.3548 -235.388 0 0 0 
19 1 1 -38.4059 -47.6805 -230.972 0 0 0 
20 2 1 -41.7954 -47.7389 -229.101 0 0 0 
22 1 1 -37.8203 -46.9453 -227.454 0 0 0 
18 3 1 -31.8767 -50.3257 -234.563 0 0 0 
23 2 1 -34.2929 -47.8845 -228.352 0 0 0 
24 3 1 -30.7057 -48.8553 -227.526 0 0 0 
417 3 1 32.0486 48.5967 -235.163 0 0 1 
423 3 1 33.2197 50.067 -228.127 0 0 1 
418 1 1 39.4697 50.0963 -234.759 0 0 1 
419 2 1 42.9972 49.1571 -235.656 0 0 1 
421 1 1 40.0552 50.8314 -231.24 0 0 1 
422 2 1 36.6657 50.773 -229.369 0 0 1 
424 1 1 40.6408 51.5666 -227.722 0 0 1 
425 2 1 44.1682 50.6274 -228.62 0 0 1 
420 3 1 46.5844 48.1862 -234.831 0 0 1 
426 3 1 47.7555 49.6566 -227.794 0 0 1 
25 1 1 -37.2348 -46.2101 -223.936 0 0 0 
26 2 1 -40.6243 -46.2686 -222.064 0 0 0 
27 3 1 -44.0704 -46.9745 -220.822 0 0 0 
28 1 1 -36.6493 -45.475 -220.417 0 0 0 
29 2 1 -33.1218 -46.4141 -221.315 0 0 0 
30 3 1 -29.5346 -47.385 -220.49 0 0 0 
31 1 1 -36.0637 -44.7398 -216.899 0 0 0 
429 3 1 34.3907 51.5374 -221.09 0 0 1 
427 1 1 41.2263 52.3018 -224.203 0 0 1 
428 2 1 37.8368 52.2433 -222.332 0 0 1 
430 1 1 41.8118 53.0369 -220.685 0 0 1 
431 2 1 45.3393 52.0977 -221.583 0 0 1 
432 3 1 48.9265 51.1269 -220.758 0 0 1 
33 3 1 -42.8993 -45.5042 -213.785 0 0 0 
36 3 1 -28.3635 -45.9147 -213.453 0 0 0 
32 2 1 -39.4533 -44.7983 -215.028 0 0 0 
34 1 1 -35.4782 -44.0046 -213.38 0 0 0 
38 2 1 -38.2822 -43.328 -207.991 0 0 0 
39 3 1 -41.7283 -44.0339 -206.748 0 0 0 
35 2 1 -31.9507 -44.9438 -214.278 0 0 0 
37 1 1 -34.8927 -43.2695 -209.862 0 0 0 
40 1 1 -34.3072 -42.5343 -206.344 0 0 0 
41 2 1 -30.7797 -43.4735 -207.241 0 0 0 
42 3 1 -27.1925 -44.4444 -206.416 0 0 0 
44 2 1 -37.1111 -41.8576 -200.954 0 0 0 
45 3 1 -40.5572 -42.5636 -199.712 0 0 0 
43 1 1 -33.7216 -41.7991 -202.825 0 0 0 
46 1 1 -33.1361 -41.064 -199.307 0 0 0 
47 2 1 -29.6086 -42.0032 -200.204 0 0 0 
48 3 1 -26.0214 -42.974 -199.379 0 0 0 
49 1 1 -32.5506 -40.3288 -195.788 0 0 0 
50 2 1 -35.9401 -40.3873 -193.917 0 0 0 
51 3 1 -39.3862 -41.0932 -192.675 0 0 0 
52 1 1 -31.965 -39.5937 -192.27 0 0 0 
53 2 1 -28.4376 -40.5329 -193.168 0 0 0 
55 1 1 -31.3795 -38.8585 -188.752 0 0 0 
56 2 1 -34.769 -38.917 -186.88 0 0 0 
59 2 1 -27.2665 -39.0625 -186.131 0 0 0 
54 3 1 -24.8503 -41.5037 -192.343 0 0 0 
57 3 1 -38.2151 -39.6229 -185.638 0 0 0 
63 3 1 -37.044 -38.1526 -178.601 0 0 0 
58 1 1 -30.794 -38.1233 -185.233 0 0 0 
61 1 1 -30.2084 -37.3882 -181.715 0 0 0 
62 2 1 -33.598 -37.4466 -179.844 0 0 0 
64 1 1 -29.6229 -36.653 -178.196 0 0 0 
65 2 1 -26.0954 -37.5922 -179.094 0 0 0 
60 3 1 -23.6793 -40.0334 -185.306 0 0 0 
66 3 1 -22.5082 -38.563 -178.269 0 0 0 
69 3 1 -35.873 -36.6823 -171.564 0 0 0 
67 1 1 -29.0374 -35.9178 -174.678 0 0 0 
68 2 1 -32.4269 -35.9763 -172.807 0 0 0 
70 1 1 -28.4519 -35.1827 -171.16 0 0 0 
71 2 1 -24.9244 -36.1219 -172.057 0 0 0 
72 3 1 -21.3372 -37.0927 -171.232 0 0 0 
73 1 1 -27.8663 -34.4475 -167.641 0 0 0 
74 2 1 -31.2558 -34.506 -165.77 0 0 0 
75 3 1 -34.7019 -35.2119 -164.528 0 0 0 
78 3 1 -20.1661 -35.6224 -164.195 0 0 0 
76 1 1 -27.2808 -33.7124 -164.123 0 0 0 
79 1 1 -26.6953 -32.9772 -160.604 0 0 0 
80 2 1 -30.0848 -33.0357 -158.733 0 0 0 
81 3 1 -33.5309 -33.7416 -157.491 0 0 0 
82 1 1 -26.1097 -32.242 -157.086 0 0 0 
77 2 1 -23.7533 -34.6515 -165.02 0 0 0 
83 2 1 -22.5823 -33.1812 -157.984 0 0 0 
84 3 1 -18.995 -34.1521 -157.159 0 0 0 
85 1 1 -25.5242 -31.5069 -153.568 0 0 0 
86 2 1 -28.9137 -31.5653 -151.696 0 0 0 
87 3 1 -32.3598 -32.2713 -150.454 0 0 0 
88 1 1 -24.9387 -30.7717 -150.049 0 0 0 
89 2 1 -21.4112 -31.7109 -150.947 0 0 0 
90 3 1 -17.824 -32.6817 -150.122 0 0 0 
91 1 1 -24.3531 -30.0365 -146.531 0 0 0 
92 2 1 -27.7427 -30.095 -144.66 0 0 0 
93 3 1 -31.1887 -30.8009 -143.417 0 0 0 
98 2 1 -26.5716 -28.6247 -137.623 0 0 0 
99 3 1 -30.0177 -29.3306 -136.38 0 0 0 
94 1 1 -23.7676 -29.3014 -143.012 0 0 0 
95 2 1 -20.2401 -30.2406 -143.91 0 0 0 
96 3 1 -16.6529 -31.2114 -143.085 0 0 0 
97 1 1 -23.1821 -28.5662 -139.494 0 0 0 
100 1 1 -22.5965 -27.831 -135.976 0 0 0 
101 2 1 -19.0691 -28.7702 -136.873 0 0 0 
102 3 1 -15.4819 -29.7411 -136.048 0 0 0 
104 2 1 -25.4005 -27.1544 -130.586 0 0 0 
105 3 1 -28.8466 -27.8603 -129.344 0 0 0 
103 1 1 -22.011 -27.0959 -132.457 0 0 0 
106 1 1 -21.4255 -26.3607 -128.939 0 0 0 
107 2 1 -17.898 -27.2999 -129.837 0 0 0 
108 3 1 -14.3108 -28.2708 -129.011 0 0 0 
111 3 1 -27.6755 -26.39 -122.307 0 0 0 
109 1 1 -20.84 -25.6256 -125.42 0 0 0 
110 2 1 -24.2295 -25.684 -123.549 0 0 0 
113 2 1 -16.7269 -25.8296 -122.8 0 0 0 
114 3 1 -13.1397 -26.8004 -121.975 0 0 0 
112 1 1 -20.2544 -24.8904 -121.902 0 0 0 
115 1 1 -19.6689 -24.1552 -118.384 0 0 0 
116 2 1 -23.0584 -24.2137 -116.512 0 0 0 
119 2 1 -15.5559 -24.3592 -115.763 0 0 0 
120 3 1 -11.9687 -25.3301 -114.938 0 0 0 
117 3 1 -26.5045 -24.9196 -115.27 0 0 0 
123 3 1 -25.3334 -23.4493 -108.233 0 0 0 
118 1 1 -19.0834 -23.4201 -114.865 0 0 0 
121 1 1 -18.4978 -22.6849 -111.347 0 0 0 
122 2 1 -21.8874 -22.7434 -109.475 0 0 0 
124 1 1 -17.9123 -21.9497 -107.828 0 0 0 
125 2 1 -14.3848 -22.8889 -108.726 0 0 0 
126 3 1 -10.7976 -23.8598 -107.901 0 0 0 
127 1 1 -17.3268 -21.2146 -104.31 0 0 0 
128 2 1 -20.7163 -21.2731 -102.439 0 0 0 
129 3 1 -24.1623 -21.979 -101.196 0 0 0 
130 1 1 -16.7412 -20.4794 -100.792 0 0 0 
133 1 1 -16.1557 -19.7443 -97.2732 0 0 0 
134 2 1 -19.5452 -19.8027 -95.4019 0 0 0 
131 2 1 -13.2138 -21.4186 -101.689 0 0 0 
132 3 1 -9.62656 -22.3895 -100.864 0 0 0 
135 3 1 -22.9913 -20.5086 -94.1596 0 0 0 
136 1 1 -15.5702 -19.0091 -93.7548 0 0 0 
140 2 1 -18.3742 -18.3324 -88.3651 0 0 0 
141 3 1 -21.8202 -19.0383 -87.1228 0 0 0 
137 2 1 -12.0427 -19.9483 -94.6525 0 0 0 
138 3 1 -8.4555 -20.9191 -93.8274 0 0 0 
139 1 1 -14.9846 -18.2739 -90.2364 0 0 0 
142 1 1 -14.3991 -17.5388 -86.718 0 0 0 
143 2 1 -10.8717 -18.4779 -87.6157 0 0 0 
144 3 1 -7.28443 -19.4488 -86.7906 0 0 0 
146 2 1 -17.2031 -16.8621 -81.3283 0 0 0 
147 3 1 -20.6492 -17.568 -80.0861 0 0 0 
145 1 1 -13.8136 -16.8036 -83.1996 0 0 0 
148 1 1 -13.228 -16.0684 -79.6812 0 0 0 
149 2 1 -9.70059 -17.0076 -80.5789 0 0 0 
150 3 1 -6.11337 -17.9785 -79.7538 0 0 0 
151 1 1 -12.6425 -15.3333 -76.1628 0 0 0 
152 2 1 -16.032 -15.3918 -74.2915 0 0 0 
153 3 1 -19.4781 -16.0977 -73.0493 0 0 0 
155 2 1 -8.52953 -15.5373 -73.5421 0 0 0 
156 3 1 -4.94231 -16.5082 -72.7169 0 0 0 
159 3 1 -18.3071 -14.6273 -66.0125 0 0 0 
154 1 1 -12.057 -14.5981 -72.6444 0 0 0 
157 1 1 -11.4715 -13.8629 -69.126 0 0 0 
158 2 1 -14.861 -13.9214 -67.2547 0 0 0 
160 1 1 -10.8859 -13.1278 -65.6076 0 0 0 
161 2 1 -7.35847 -14.067 -66.5053 0 0 0 
162 3 1 -3.77125 -15.0378 -65.6801 0 0 0 
165 3 1 -17.136 -13.157 -58.9757 0 0 0 
163 1 1 -10.3004 -12.3926 -62.0892 0 0 0 
164 2 1 -13.6899 -12.4511 -60.2179 0 0 0 
166 1 1 -9.71487 -11.6575 -58.5708 0 0 0 
167 2 1 -6.18741 -12.5966 -59.4685 0 0 0 
168 3 1 -2.60019 -13.5675 -58.6433 0 0 0 
171 3 1 -15.9649 -11.6867 -51.9389 0 0 0 
169 1 1 -9.12934 -10.9223 -55.0524 0 0 0 
170 2 1 -12.5189 -10.9808 -53.1811 0 0 0 
172 1 1 -8.54381 -10.1871 -51.534 0 0 0 
175 1 1 -7.95828 -9.45196 -48.0156 0 0 0 
176 2 1 -11.3478 -9.51044 -46.1443 0 0 0 
173 2 1 -5.01635 -11.1263 -52.4317 0 0 0 
174 3 1 -1.42913 -12.0972 -51.6065 0 0 0 
179 2 1 -3.84528 -9.65598 -45.3949 0 0 0 
177 3 1 -14.7939 -10.2164 -44.9021 0 0 0 
178 1 1 -7.37275 -8.7168 -44.4972 0 0 0 
181 1 1 -6.78722 -7.98163 -40.9788 0 0 0 
182 2 1 -10.1767 -8.04012 -39.1075 0 0 0 
183 3 1 -13.6228 -8.74604 -37.8652 0 0 0 
184 1 1 -6.20169 -7.24647 -37.4604 0 0 0 
180 3 1 -0.258066 -10.6268 -44.5697 0 0 0 
185 2 1 -2.67422 -8.18566 -38.3581 0 0 0 
186 3 1 0.912995 -9.15652 -37.5329 0 0 0 
187 1 1 -5.61616 -6.51131 -33.942 0 0 0 
188 2 1 -9.00567 -6.56979 -32.0707 0 0 0 
189 3 1 -12.4517 -7.27571 -30.8284 0 0 0 
190 1 1 -5.03063 -5.77614 -30.4236 0 0 0 
191 2 1 -1.50316 -6.71533 -31.3213 0 0 0 
192 3 1 2.08406 -7.68619 -30.4962 0 0 0 
193 1 1 -4.4451 -5.04098 -26.9052 0 0 0 
194 2 1 -7.83461 -5.09946 -25.0339 0 0 0 
195 3 1 -11.2807 -5.80539 -23.7916 0 0 0 
197 2 1 -0.332099 -5.245 -24.2845 0 0 0 
198 3 1 3.25512 -6.21586 -23.4593 0 0 0 
200 2 1 -6.66355 -3.62914 -17.9971 0 0 0 
201 3 1 -10.1096 -4.33506 -16.7548 0 0 0 
196 1 1 -3.85956 -4.30582 -23.3868 0 0 0 
199 1 1 -3.27403 -3.57065 -19.8684 0 0 0 
202 1 1 -2.6885 -2.83549 -16.35 0 0 0 
203 2 1 0.838961 -3.77467 -17.2477 0 0 0 
204 3 1 4.42618 -4.74554 -16.4225 0 0 0 
206 2 1 -5.49249 -2.15881 -10.9603 0 0 0 
207 3 1 -8.93856 -2.86473 -9.71804 0 0 0 
205 1 1 -2.10297 -2.10033 -12.8316 0 0 0 
208 1 1 -1.51744 -1.36516 -9.31319 0 0 0 
209 2 1 2.01002 -2.30435 -10.2109 0 0 0 
211 1 1 -0.931911 -0.629998 -5.79479 0 0 0 
210 3 1 5.59724 -3.27521 -9.38575 0 0 0 
213 3 1 -7.7675 -1.3944 -2.68124 0 0 0 
219 3 1 -6.59644 0.075921 4.35556 0 0 0 
212 2 1 -4.32143 -0.688482 -3.92353 0 0 0 
214 1 1 -0.34638 0.105164 -2.27638 0 0 0 
215 2 1 3.18108 -0.83402 -3.17409 0 0 0 
217 1 1 0.23915 0.840328 1.24202 0 0 0 
218 2 1 -3.15037 0.781844 3.11327 0 0 0 
220 1 1 0.82468 1.57549 4.76042 0 0 0 
221 2 1 4.35215 0.636306 3.86271 0 0 0 
216 3 1 6.7683 -1.80488 -2.34895 0 0 0 
222 3 1 7.93936 -0.334554 4.68786 0 0 0 
225 3 1 -5.42537 1.54625 11.3924 0 0 0 
223 1 1 1.41021 2.31066 8.27882 0 0 0 
224 2 1 -1.97931 2.25217 10.1501 0 0 0 
226 1 1 1.99574 3.04582 11.7972 0 0 0 
227 2 1 5.52321 2.10663 10.8995 0 0 0 
228 3 1 9.11042 1.13577 11.7247 0 0 0 
229 1 1 2.58127 3.78098 15.3156 0 0 0 
230 2 1 -0.808244 3.7225 17.1869 0 0 0 
231 3 1 -4.25431 3.01658 18.4292 0 0 0 
232 1 1 3.1668 4.51615 18.834 0 0 0 
233 2 1 6.69427 3.57696 17.9363 0 0 0 
234 3 1 10.2815 2.6061 18.7614 0 0 0 
235 1 1 3.75233 5.25131 22.3524 0 0 0 
236 2 1 0.362816 5.19283 24.2237 0 0 0 
239 2 1 7.86533 5.04729 24.9731 0 0 0 
237 3 1 -3.08325 4.4869 25.466 0 0 0 
240 3 1 11.4525 4.07643 25.7983 0 0 0 
238 1 1 4.33786 5.98647 25.8708 0 0 0 
241 1 1 4.9234 6.72164 29.3892 0 0 0 
242 2 1 1.53388 6.66315 31.2605 0 0 0 
243 3 1 -1.91219 5.95723 32.5028 0 0 0 
244 1 1 5.50893 7.4568 32.9076 0 0 0 
245 2 1 9.03639 6.51761 32.0099 0 0 0 
246 3 1 12.6236 5.54675 32.8351 0 0 0 
248 2 1 2.70494 8.13348 38.2973 0 0 0 
249 3 1 -0.74113 7.42756 39.5396 0 0 0 
247 1 1 6.09446 8.19196 36.426 0 0 0 
250 1 1 6.67999 8.92713 39.9444 0 0 0 
251 2 1 10.2074 7.98794 39.0467 0 0 0 
252 3 1 13.7947 7.01708 39.8719 0 0 0 
253 1 1 7.26552 9.66229 43.4628 0 0 0 
254 2 1 3.876 9.60381 45.3341 0 0 0 
255 3 1 0.429931 8.89788 46.5764 0 0 0 
261 3 1 1.60099 10.3682 53.6132 0 0 0 
256 1 1 7.85105 10.3974 46.9812 0 0 0 
257 2 1 11.3785 9.45827 46.0835 0 0 0 
258 3 1 14.9657 8.48741 46.9087 0 0 0 
259 1 1 8.43658 11.1326 50.4996 0 0 0 
260 2 1 5.04706 11.0741 52.3709 0 0 0 
262 1 1 9.02211 11.8678 54.018 0 0 0 
263 2 1 12.5496 10.9286 53.1203 0 0 0 
264 3 1 16.1368 9.95773 53.9455 0 0 0 
267 3 1 2.77205 11.8385 60.65 0 0 0 
265 1 1 9.60764 12.6029 57.5364 0 0 0 
266 2 1 6.21812 12.5445 59.4077 0 0 0 
268 1 1 10.1932 13.3381 61.0548 0 0 0 
269 2 1 13.7206 12.3989 60.1571 0 0 0 
271 1 1 10.7787 14.0733 64.5732 0 0 0 
270 3 1 17.3078 11.4281 60.9823 0 0 0 
273 3 1 3.94312 13.3089 67.6868 0 0 0 
272 2 1 7.38919 14.0148 66.4445 0 0 0 
274 1 1 11.3642 14.8084 68.0916 0 0 0 
275 2 1 14.8917 13.8692 67.1939 0 0 0 
279 3 1 5.11418 14.7792 74.7236 0 0 0 
276 3 1 18.4789 12.8984 68.0191 0 0 0 
282 3 1 19.65 14.3687 75.0559 0 0 0 
277 1 1 11.9498 15.5436 71.61 0 0 0 
278 2 1 8.56025 15.4851 73.4813 0 0 0 
280 1 1 12.5353 16.2788 75.1284 0 0 0 
281 2 1 16.0628 15.3396 74.2307 0 0 0 
283 1 1 13.1208 17.0139 78.6468 0 0 0 
284 2 1 9.73131 16.9554 80.5181 0 0 0 
285 3 1 6.28524 16.2495 81.7604 0 0 0 
286 1 1 13.7064 17.7491 82.1652 0 0 0 
287 2 1 17.2338 16.8099 81.2675 0 0 0 
288 3 1 20.821 15.839 82.0927 0 0 0 
289 1 1 14.2919 18.4842 85.6836 0 0 0 
290 2 1 10.9024 18.4258 87.5549 0 0 0 
291 3 1 7.4563 17.7198 88.7972 0 0 0 
292 1 1 14.8774 19.2194 89.202 0 0 0 
296 2 1 12.0734 19.8961 94.5917 0 0 0 
293 2 1 18.4049 18.2802 88.3043 0 0 0 
294 3 1 21.9921 17.3094 89.1295 0 0 0 
295 1 1 15.4629 19.9546 92.7204 0 0 0 
299 2 1 19.5759 19.7506 95.3411 0 0 0 
297 3 1 8.62736 19.1902 95.834 0 0 0 
302 2 1 13.2445 21.3664 101.628 0 0 0 
303 3 1 9.79842 20.6605 102.871 0 0 0 
298 1 1 16.0485 20.6897 96.2388 0 0 0 
300 3 1 23.1632 18.7797 96.1663 0 0 0 
301 1 1 16.634 21.4249 99.7572 0 0 0 
304 1 1 17.2195 22.1601 103.276 0 0 0 
305 2 1 20.747 21.2209 102.378 0 0 0 
306 3 1 24.3342 20.25 103.203 0 0 0 
308 2 1 14.4155 22.8367 108.665 0 0 0 
309 3 1 10.9695 22.1308 109.907 0 0 0 
307 1 1 17.8051 22.8952 106.794 0 0 0 
310 1 1 18.3906 23.6304 110.312 0 0 0 
311 2 1 21.9181 22.6912 109.415 0 0 0 
313 1 1 18.9761 24.3656 113.831 0 0 0 
312 3 1 25.5053 21.7203 110.24 0 0 0 
315 3 1 12.1405 23.6012 116.944 0 0 0 
321 3 1 13.3116 25.0715 123.981 0 0 0 
314 2 1 15.5866 24.3071 115.702 0 0 0 
317 2 1 23.0891 24.1615 116.451 0 0 0 
318 3 1 26.6763 23.1907 117.277 0 0 0 
324 3 1 27.8474 24.661 124.313 0 0 0 
316 1 1 19.5617 25.1007 117.349 0 0 0 
319 1 1 20.1472 25.8359 120.868 0 0 0 
320 2 1 16.7577 25.7774 122.739 0 0 0 
322 1 1 20.7327 26.571 124.386 0 0 0 
323 2 1 24.2602 25.6319 123.488 0 0 0 
327 3 1 14.4827 26.5418 131.018 0 0 0 
325 1 1 21.3182 27.3062 127.904 0 0 0 
326 2 1 17.9287 27.2477 129.776 0 0 0 
328 1 1 21.9038 28.0414 131.423 0 0 0 
331 1 1 22.4893 28.7765 134.941 0 0 0 
329 2 1 25.4312 27.1022 130.525 0 0 0 
330 3 1 29.0185 26.1313 131.35 0 0 0 
332 2 1 19.0998 28.7181 136.812 0 0 0 
333 3 1 15.6537 28.0121 138.055 0 0 0 
334 1 1 23.0748 29.5117 138.46 0 0 0 
337 1 1 23.6604 30.2469 141.978 0 0 0 
338 2 1 20.2709 30.1884 143.849 0 0 0 
339 3 1 16.8248 29.4825 145.091 0 0 0 
340 1 1 24.2459 30.982 145.496 0 0 0 
335 2 1 26.6023 28.5725 137.562 0 0 0 
336 3 1 30.1895 27.6017 138.387 0 0 0 
341 2 1 27.7734 30.0428 144.599 0 0 0 
342 3 1 31.3606 29.072 145.424 0 0 0 
343 1 1 24.8314 31.7172 149.015 0 0 0 
344 2 1 21.4419 31.6587 150.886 0 0 0 
345 3 1 17.9959 30.9528 152.128 0 0 0 
346 1 1 25.417 32.4524 152.533 0 0 0 
347 2 1 28.9444 31.5132 151.636 0 0 0 
348 3 1 32.5316 30.5423 152.461 0 0 0 
350 2 1 22.613 33.129 157.923 0 0 0 
351 3 1 19.1669 32.4231 159.165 0 0 0 
356 2 1 23.784 34.5994 164.96 0 0 0 
349 1 1 26.0025 33.1875 156.052 0 0 0 
352 1 1 26.588 33.9227 159.57 0 0 0 
353 2 1 30.1155 32.9835 158.672 0 0 0 
354 3 1 33.7027 32.0126 159.497 0 0 0 
355 1 1 27.1736 34.6579 163.088 0 0 0 
357 3 1 20.338 33.8934 166.202 0 0 0 
359 2 1 31.2865 34.4538 165.709 0 0 0 
360 3 1 34.8738 33.483 166.534 0 0 0 
366 3 1 36.0448 34.9533 173.571 0 0 0 
362 2 1 24.9551 36.0697 171.996 0 0 0 
363 3 1 21.509 35.3638 173.239 0 0 0 
358 1 1 27.7591 35.393 166.607 0 0 0 
361 1 1 28.3446 36.1282 170.125 0 0 0 
364 1 1 28.9302 36.8633 173.644 0 0 0 
365 2 1 32.4576 35.9241 172.746 0 0 0 
369 3 1 22.6801 36.8341 180.275 0 0 0 
367 1 1 29.5157 37.5985 177.162 0 0 0 
368 2 1 26.1262 37.54 179.033 0 0 0 
370 1 1 30.1012 38.3337 180.68 0 0 0 
371 2 1 33.6287 37.3945 179.783 0 0 0 
373 1 1 30.6867 39.0688 184.199 0 0 0 
372 3 1 37.2159 36.4236 180.608 0 0 0 
375 3 1 23.8512 38.3044 187.312 0 0 0 
381 3 1 25.0222 39.7747 194.349 0 0 0 
374 2 1 27.2972 39.0103 186.07 0 0 0 
376 1 1 31.2723 39.804 187.717 0 0 0 
377 2 1 34.7997 38.8648 186.82 0 0 0 
379 1 1 31.8578 40.5391 191.236 0 0 0 
380 2 1 28.4683 40.4807 193.107 0 0 0 
382 1 1 32.4433 41.2743 194.754 0 0 0 
378 3 1 38.387 37.8939 187.645 0 0 0 
383 2 1 35.9708 40.3351 193.856 0 0 0 
384 3 1 39.558 39.3643 194.681 0 0 0 
385 1 1 33.0289 42.0095 198.272 0 0 0 
386 2 1 29.6394 41.951 200.144 0 0 0 
387 3 1 26.1933 41.2451 201.386 0 0 0 
388 1 1 33.6144 42.7446 201.791 0 0 0 
391 1 1 34.1999 43.4798 205.309 0 0 0 
389 2 1 37.1419 41.8055 200.893 0 0 0 
390 3 1 40.7291 40.8346 201.718 0 0 0 
392 2 1 30.8104 43.4213 207.18 0 0 0 
393 3 1 27.3643 42.7154 208.423 0 0 0 
394 1 1 34.7855 44.215 208.828 0 0 0 
398 2 1 31.9815 44.8916 214.217 0 0 0 
399 3 1 28.5354 44.1857 215.46 0 0 0 
395 2 1 38.3129 43.2758 207.93 0 0 0 
396 3 1 41.9001 42.3049 208.755 0 0 0 
397 1 1 35.371 44.9501 212.346 0 0 0 
401 2 1 39.484 44.7461 214.967 0 0 0 
402 3 1 43.0712 43.7752 215.792 0 0 0 
2 2 1 -45.3086 -52.1499 221.522 0 0 -1 
3 3 1 -48.7546 -52.8558 222.764 0 0 -1 
1 1 1 -41.9191 -52.0914 219.651 0 0 -1 
4 1 1 -41.3335 -51.3563 223.169 0 0 -1 
5 2 1 -37.8061 -52.2955 222.271 0 0 -1 
6 3 1 -34.2188 -53.2663 223.097 0 0 -1 
404 2 1 33.1525 46.362 221.254 0 0 0 
405 3 1 29.7065 45.6561 222.496 0 0 0 
400 1 1 35.9565 45.6853 215.864 0 0 0 
403 1 1 36.5421 46.4205 219.383 0 0 0 
406 1 1 37.1276 47.1556 222.901 0 0 0 
407 2 1 40.6551 46.2164 222.004 0 0 0 
408 3 1 44.2423 45.2456 222.829 0 0 0 
9 3 1 -47.5836 -51.3855 229.801 0 0 -1 
7 1 1 -40.748 -50.6211 226.687 0 0 -1 
8 2 1 -44.1375 -50.6796 228.559 0 0 -1 
10 1 1 -40.1625 -49.886 230.206 0 0 -1 
11 2 1 -36.635 -50.8251 229.308 0 0 -1 
13 1 1 -39.5769 -49.1508 233.724 0 0 -1 
14 2 1 -42.9665 -49.2093 235.596 0 0 -1 
12 3 1 -33.0478 -51.796 230.133 0 0 -1 
410 2 1 34.3236 47.8323 228.291 0 0 0 
411 3 1 30.8775 47.1264 229.533 0 0 0 
409 1 1 37.7131 47.8908 226.42 0 0 0 
412 1 1 38.2986 48.626 229.938 0 0 0 
413 2 1 41.8261 47.6868 229.04 0 0 0 
415 1 1 38.8842 49.3611 233.456 0 0 0 
416 2 1 35.4947 49.3026 235.328 0 0 0 
414 3 1 45.4133 46.7159 229.865 0 0 0 
ITEM: TIMESTEP
100000
ITEM: NUMBER OF ATOMS
432
ITEM: BOX BOUNDS pp pp pp
-235.867 235.867
-235.867 235.867
-235.867 235.867
ITEM: ATOMS id type mol x y z ix iy iz 
9 3 1 -43.7945 -63.5679 -183.216 0 0 0 
12 3 1 -42.8917 -57.6936 -184.555 0 0 0 
1 1 1 -51.1383 -67.0106 -179.056 0 0 0 
2 2 1 -50.9501 -63.3479 -181.055 0 0 0 
3 3 1 -50.6298 -61.0464 -184.086 0 0 0 
6 3 1 -49.214 -64.6168 -169.946 0 0 0 
5 2 1 -49.8254 -63.6806 -173.279 0 0 0 
4 1 1 -49.472 -64.2836 -177.145 0 0 0 
7 1 1 -47.2763 -61.2407 -177.434 0 0 0 
8 2 1 -45.0537 -61.7635 -180.306 0 0 0 
10 1 1 -45.0537 -58.161 -177.123 0 0 0 
13 1 1 -43.5031 -55.1163 -175.437 0 0 0 
11 2 1 -43.3184 -57.3177 -180.723 0 0 0 
15 3 1 -41.772 -53.8223 -168.31 0 0 0 
14 2 1 -43.6301 -53.6771 -171.527 0 0 0 
16 1 1 -40.9996 -51.9814 -175.126 0 0 0 
17 2 1 -42.5416 -48.6699 -173.612 0 0 0 
19 1 1 -37.9936 -49.5011 -174.877 0 0 0 
18 3 1 -44.9237 -46.7227 -171.965 0 0 0 
21 3 1 -31.7951 -50.782 -179.064 0 0 0 
20 2 1 -34.5712 -50.9292 -176.587 0 0 0 
22 1 1 -35.4217 -46.5904 -175.42 0 0 0 
25 1 1 -32.4474 -44.0288 -176.111 0 0 0 
26 2 1 -31.0125 -44.0865 -179.931 0 0 0 
27 3 1 -29.158 -44.9364 -183.171 0 0 0 
29 2 1 -26.9061 -39.6854 -178.173 0 0 0 
30 3 1 -23.8849 -37.4707 -177.83 0 0 0 
24 3 1 -35.9769 -44.1975 -169.427 0 0 0 
23 2 1 -36.0438 -43.6138 -172.881 0 0 0 
28 1 1 -29.6065 -41.4187 -175.555 0 0 0 
31 1 1 -27.7756 -39.236 -173.126 0 0 0 
32 2 1 -26.3864 -36.0716 -173.455 0 0 0 
34 1 1 -26.7598 -38.5386 -169.57 0 0 0 
33 3 1 -24.3383 -33.5771 -175.144 0 0 0 
35 2 1 -26.2305 -41.982 -167.685 0 0 0 
37 1 1 -25.5465 -37.0266 -166.272 0 0 0 
38 2 1 -27.0757 -37.9991 -162.839 0 0 0 
36 3 1 -28.1792 -44.8912 -167.161 0 0 0 
42 3 1 -16.2685 -33.5328 -162.905 0 0 0 
40 1 1 -23.5728 -35.0813 -163.6 0 0 0 
41 2 1 -19.74 -34.3543 -164.368 0 0 0 
39 3 1 -25.6822 -40.7401 -160.796 0 0 0 
45 3 1 -27.1424 -30.7217 -156.051 0 0 0 
43 1 1 -22.229 -33.1524 -160.433 0 0 0 
46 1 1 -19.6198 -32.7039 -157.781 0 0 0 
44 2 1 -24.0466 -30.5201 -158.053 0 0 0 
47 2 1 -16.3683 -35.1768 -157.812 0 0 0 
48 3 1 -13.1848 -34.9447 -158.913 0 0 0 
51 3 1 -18.4241 -27.5356 -149.395 0 0 0 
49 1 1 -17.2594 -31.8595 -154.901 0 0 0 
50 2 1 -18.655 -30.313 -151.427 0 0 0 
54 3 1 -7.32143 -33.5046 -153.84 0 0 0 
52 1 1 -14.3061 -31.0439 -152.309 0 0 0 
53 2 1 -10.4987 -31.5077 -152.941 0 0 0 
55 1 1 -12.487 -30.3549 -149.033 0 0 0 
56 2 1 -14.9875 -29.2602 -146.26 0 0 0 
58 1 1 -9.99802 -30.0087 -146.045 0 0 0 
62 2 1 -3.71379 -32.3659 -146.002 0 0 0 
63 3 1 -1.37553 -32.446 -148.506 0 0 0 
57 3 1 -16.042 -31.5254 -143.8 0 0 0 
59 2 1 -10.3703 -27.4435 -142.874 0 0 0 
61 1 1 -6.85103 -30.8153 -144.024 0 0 0 
65 2 1 -5.85188 -31.0303 -137.614 0 0 0 
64 1 1 -4.14481 -31.3113 -141.37 0 0 0 
68 2 1 3.16394 -31.7602 -139.766 0 0 0 
67 1 1 -0.946124 -31.5166 -139.18 0 0 0 
69 3 1 6.32347 -32.7279 -140.883 0 0 0 
60 3 1 -11.779 -27.4683 -139.584 0 0 0 
66 3 1 -7.96495 -31.0032 -134.941 0 0 0 
71 2 1 -1.80717 -30.9497 -132.729 0 0 0 
72 3 1 -4.32278 -31.9188 -130.603 0 0 0 
70 1 1 0.531235 -31.2861 -135.55 0 0 0 
73 1 1 2.68219 -30.7474 -132.34 0 0 0 
76 1 1 5.25121 -30.585 -129.381 0 0 0 
75 3 1 9.63327 -28.2869 -132.541 0 0 0 
74 2 1 6.2925 -29.1136 -133.146 0 0 0 
77 2 1 8.98788 -32.3643 -129.591 0 0 0 
78 3 1 11.9682 -34.4313 -128.91 0 0 0 
82 1 1 6.11669 -28.6237 -122.009 0 0 0 
85 1 1 4.53808 -27.6542 -118.634 0 0 0 
79 1 1 6.58885 -29.8902 -125.639 0 0 0 
83 2 1 9.21014 -27.801 -119.785 0 0 0 
80 2 1 10.1357 -31.1791 -124.015 0 0 0 
81 3 1 13.7638 -31.5289 -123.624 0 0 0 
84 3 1 12.6306 -26.5933 -119.947 0 0 0 
96 3 1 -8.81222 -24.4322 -115.078 0 0 0 
90 3 1 -4.58001 -28.3184 -115.268 0 0 0 
94 1 1 -3.30191 -25.9283 -110.358 0 0 0 
95 2 1 -6.38161 -24.434 -112.38 0 0 0 
102 3 1 -15.5007 -25.774 -109.139 0 0 0 
89 2 1 -1.13907 -28.4698 -116.063 0 0 0 
91 1 1 -0.0148616 -26.2617 -112.448 0 0 0 
88 1 1 2.36655 -27.1816 -115.479 0 0 0 
86 2 1 6.41249 -24.8618 -116.719 0 0 0 
87 3 1 9.54395 -23.3986 -115.399 0 0 0 
97 1 1 -6.01825 -25.1822 -107.866 0 0 0 
92 2 1 1.39101 -26.0711 -108.795 0 0 0 
93 3 1 2.05237 -28.3607 -105.877 0 0 0 
111 3 1 -23.3675 -20.7992 -100.651 0 0 0 
117 3 1 -25.6598 -21.9934 -93.1826 0 0 0 
108 3 1 -21.2751 -26.8991 -101.785 0 0 0 
110 2 1 -20.6514 -20.4377 -98.4836 0 0 0 
107 2 1 -18.2691 -25.1168 -100.244 0 0 0 
101 2 1 -12.9587 -25.7234 -106.409 0 0 0 
116 2 1 -24.4906 -18.2793 -92.9156 0 0 0 
106 1 1 -14.4976 -23.2623 -100.173 0 0 0 
109 1 1 -16.7826 -21.2654 -97.6666 0 0 0 
112 1 1 -17.7668 -19.1073 -94.627 0 0 0 
113 2 1 -15.5497 -17.4187 -91.6796 0 0 0 
100 1 1 -9.03439 -24.884 -105.369 0 0 0 
104 2 1 -10.1389 -21.3238 -99.7916 0 0 0 
103 1 1 -11.604 -24.0937 -102.491 0 0 0 
98 2 1 -5.12503 -22.6237 -104.778 0 0 0 
105 3 1 -7.93295 -20.4534 -96.8647 0 0 0 
99 3 1 -3.72161 -21.8437 -101.255 0 0 0 
122 2 1 -29.8115 -15.6289 -89.6028 0 0 0 
123 3 1 -30.7965 -18.123 -91.8852 0 0 0 
115 1 1 -20.6041 -17.2536 -92.5281 0 0 0 
118 1 1 -22.8926 -15.092 -90.0661 0 0 0 
124 1 1 -28.7923 -12.1047 -86.3427 0 0 0 
121 1 1 -26.3862 -14.2014 -88.4317 0 0 0 
119 2 1 -22.316 -12.7273 -86.7199 0 0 0 
120 3 1 -20.771 -9.56591 -85.2006 0 0 0 
129 3 1 -37.1526 -12.3007 -90.0402 0 0 0 
114 3 1 -12.1051 -16.5719 -90.5214 0 0 0 
126 3 1 -26.659 -6.23384 -82.9494 0 0 0 
125 2 1 -28.2236 -9.22968 -84.2541 0 0 0 
128 2 1 -35.6211 -12.4196 -86.5463 0 0 0 
127 1 1 -32.1483 -11.3514 -84.7322 0 0 0 
130 1 1 -34.5263 -10.112 -82.1452 0 0 0 
133 1 1 -36.0204 -9.07536 -78.8614 0 0 0 
132 3 1 -39.7957 -10.1124 -86.5812 0 0 0 
131 2 1 -38.4934 -9.65453 -83.3152 0 0 0 
134 2 1 -34.7362 -8.97249 -74.9774 0 0 0 
136 1 1 -38.7938 -7.65695 -76.542 0 0 0 
137 2 1 -41.9648 -5.83836 -78.1669 0 0 0 
138 3 1 -45.2956 -4.76318 -79.7967 0 0 0 
147 3 1 -37.3786 -9.74635 -62.4293 0 0 0 
135 3 1 -31.8862 -10.1914 -72.6944 0 0 0 
142 1 1 -41.7033 -5.10257 -69.9576 0 0 0 
143 2 1 -45.3252 -3.0841 -69.3941 0 0 0 
144 3 1 -48.8687 -1.76979 -68.5964 0 0 0 
139 1 1 -40.7266 -6.19845 -73.5093 0 0 0 
140 2 1 -43.6969 -3.76062 -74.3885 0 0 0 
141 3 1 -45.2952 -0.250473 -74.4123 0 0 0 
145 1 1 -41.3839 -4.54604 -66.1204 0 0 0 
150 3 1 -43.6843 2.86223 -58.6946 0 0 0 
149 2 1 -41.8436 0.498332 -60.7676 0 0 0 
146 2 1 -39.7277 -7.28599 -63.8082 0 0 0 
148 1 1 -41.434 -3.04271 -62.5536 0 0 0 
152 2 1 -43.4144 -1.96854 -55.3866 0 0 0 
151 1 1 -41.3104 -3.26865 -58.5976 0 0 0 
153 3 1 -45.4057 -1.59706 -52.5887 0 0 0 
159 3 1 -43.682 -5.86499 -45.9878 0 0 0 
158 2 1 -40.7702 -6.38708 -48.4905 0 0 0 
154 1 1 -39.4301 -4.82526 -55.4968 0 0 0 
160 1 1 -36.2453 -5.22011 -48.8167 0 0 0 
155 2 1 -36.949 -8.06067 -56.0949 0 0 0 
157 1 1 -38.4622 -5.45274 -51.8598 0 0 0 
156 3 1 -36.4741 -11.485 -55.4535 0 0 0 
168 3 1 -27.4875 -9.71728 -40.9519 0 0 0 
161 2 1 -37.7902 -5.02322 -45.0699 0 0 0 
162 3 1 -38.8852 -5.81176 -41.6901 0 0 0 
165 3 1 -25.9543 -2.19418 -49.4065 0 0 0 
167 2 1 -29.7693 -7.0806 -40.6262 0 0 0 
163 1 1 -33.0637 -4.31626 -46.7276 0 0 0 
166 1 1 -30.6566 -4.46794 -43.6454 0 0 0 
169 1 1 -27.7706 -2.53307 -41.7237 0 0 0 
164 2 1 -29.4264 -2.55667 -47.6271 0 0 0 
171 3 1 -22.7276 2.57781 -40.2384 0 0 0 
170 2 1 -25.7195 0.886594 -41.8863 0 0 0 
174 3 1 -25.3321 -5.19686 -31.9216 0 0 0 
173 2 1 -25.7401 -4.65522 -35.5145 0 0 0 
181 1 1 -17.4503 -2.564 -30.4505 0 0 0 
182 2 1 -13.9562 -1.77287 -30.1662 0 0 0 
183 3 1 -10.2799 -2.59937 -30.0649 0 0 0 
184 1 1 -16.4254 -2.46982 -26.7247 0 0 0 
172 1 1 -24.9129 -2.7608 -38.9994 0 0 0 
175 1 1 -21.6963 -2.75072 -36.8472 0 0 0 
176 2 1 -17.6546 -2.91415 -38.0271 0 0 0 
178 1 1 -19.2778 -2.69346 -33.8483 0 0 0 
177 3 1 -14.0876 -1.47998 -38.9705 0 0 0 
179 2 1 -15.5149 -4.23179 -34.4716 0 0 0 
186 3 1 -11.2949 -7.98803 -27.4508 0 0 0 
187 1 1 -15.1038 -3.00581 -22.9952 0 0 0 
185 2 1 -13.651 -5.48435 -26.5907 0 0 0 
190 1 1 -13.1075 -4.61882 -20.0047 0 0 0 
191 2 1 -12.1865 -8.47229 -21.1128 0 0 0 
193 1 1 -11.0211 -5.52702 -16.8593 0 0 0 
192 3 1 -9.82018 -10.0228 -23.5532 0 0 0 
180 3 1 -12.0878 -4.38739 -35.373 0 0 0 
188 2 1 -16.3754 -1.12625 -19.6612 0 0 0 
189 3 1 -19.0979 0.533886 -17.8882 0 0 0 
194 2 1 -11.68 -8.33708 -14.822 0 0 0 
195 3 1 -10.6926 -11.7408 -14.2111 0 0 0 
196 1 1 -8.02127 -5.3955 -14.3666 0 0 0 
197 2 1 -6.72445 -7.94725 -11.3792 0 0 0 
198 3 1 -5.90815 -8.62364 -7.98576 0 0 0 
203 2 1 -5.15862 2.52877 -9.87513 0 0 0 
201 3 1 1.77384 -3.11566 -14.9826 0 0 0 
199 1 1 -5.11622 -3.31581 -12.8766 0 0 0 
202 1 1 -3.00662 -0.573085 -11.2945 0 0 0 
205 1 1 -0.306046 1.83544 -9.76872 0 0 0 
200 2 1 -1.69562 -3.92711 -13.3391 0 0 0 
204 3 1 -5.98613 5.88655 -9.63449 0 0 0 
208 1 1 0.986047 4.75019 -7.54633 0 0 0 
213 3 1 6.92952 11.6439 -7.95095 0 0 0 
207 3 1 6.84601 0.874128 -9.19993 0 0 0 
206 2 1 3.66006 1.64566 -10.2968 0 0 0 
209 2 1 -1.22981 5.78341 -4.28383 0 0 0 
210 3 1 -2.16783 6.04113 -0.954648 0 0 0 
211 1 1 3.18482 7.20344 -5.43012 0 0 0 
214 1 1 4.67356 9.11434 -2.43584 0 0 0 
215 2 1 2.67151 9.10165 1.0096 0 0 0 
212 2 1 6.25479 8.30465 -7.20617 0 0 0 
216 3 1 -0.365625 9.42065 2.68812 0 0 0 
218 2 1 6.50491 12.0513 4.07152 0 0 0 
219 3 1 4.72515 11.5673 7.06549 0 0 0 
217 1 1 6.97107 11.1872 0.0475867 0 0 0 
220 1 1 10.1718 13.2174 0.910345 0 0 0 
223 1 1 12.151 14.7661 3.796 0 0 0 
224 2 1 12.0524 13.0402 7.38543 0 0 0 
221 2 1 13.5527 15.0644 -0.18599 0 0 0 
222 3 1 16.9826 15.366 -0.469869 0 0 0 
226 1 1 14.4029 16.8815 6.08616 0 0 0 
230 2 1 13.6606 17.3718 12.4174 0 0 0 
229 1 1 15.3787 19.0393 9.10459 0 0 0 
227 2 1 18.2967 18.2144 5.34797 0 0 0 
228 3 1 21.9711 17.3996 4.88304 0 0 0 
231 3 1 10.17 16.9932 14.0616 0 0 0 
237 3 1 19.2555 31.7019 13.5266 0 0 0 
225 3 1 13.7718 11.1308 10.2717 0 0 0 
233 2 1 17.8859 20.2814 14.9522 0 0 0 
234 3 1 19.6396 17.6822 17.1961 0 0 0 
232 1 1 17.1152 21.4728 11.5832 0 0 0 
235 1 1 18.8189 24.2502 13.5458 0 0 0 
236 2 1 18.2254 27.9749 13.2477 0 0 0 
238 1 1 20.7653 26.345 16.061 0 0 0 
239 2 1 23.9337 25.3673 18.4121 0 0 0 
241 1 1 21.5246 29.8149 17.713 0 0 0 
242 2 1 24.7944 30.2092 20.0599 0 0 0 
243 3 1 27.8458 29.7179 22.2422 0 0 0 
240 3 1 24.5079 24.0061 21.6537 0 0 0 
245 2 1 19.4783 36.7682 17.8775 0 0 0 
246 3 1 18.5455 38.8881 15.1827 0 0 0 
244 1 1 21.6717 33.5313 18.7846 0 0 0 
247 1 1 23.2381 36.7494 20.3105 0 0 0 
250 1 1 22.6563 40.283 21.8439 0 0 0 
249 3 1 30.1443 37.3189 23.6309 0 0 0 
248 2 1 26.4859 37.1163 22.8664 0 0 0 
255 3 1 27.419 44.7432 28.8381 0 0 0 
252 3 1 17.3063 44.2676 19.0372 0 0 0 
258 3 1 17.3334 50.8989 21.8571 0 0 0 
253 1 1 22.6309 43.7139 23.7511 0 0 0 
251 2 1 20.6393 42.9038 19.459 0 0 0 
254 2 1 25.5186 44.3683 25.9186 0 0 0 
257 2 1 19.5714 49.9086 24.3963 0 0 0 
259 1 1 21.9212 49.4089 28.8553 0 0 0 
256 1 1 21.9823 46.9275 25.912 0 0 0 
270 3 1 8.23611 50.0689 34.8027 0 0 0 
267 3 1 14.8113 45.1375 34.6002 0 0 0 
265 1 1 17.2354 51.7901 34.3829 0 0 0 
266 2 1 15.3031 48.4353 35.4736 0 0 0 
269 2 1 10.5987 52.4882 35.7555 0 0 0 
260 2 1 24.4102 51.9067 30.218 0 0 0 
262 1 1 20.0453 51.1582 31.7399 0 0 0 
264 3 1 24.2791 54.0008 36.8892 0 0 0 
268 1 1 14.5243 53.115 36.7637 0 0 0 
271 1 1 12.2728 53.3398 39.8171 0 0 0 
274 1 1 10.3406 52.9634 43.2246 0 0 0 
263 2 1 21.4073 53.9001 34.402 0 0 0 
261 3 1 26.759 51.4692 33.015 0 0 0 
273 3 1 5.21676 51.9638 39.9916 0 0 0 
272 2 1 8.34467 53.3432 39.2618 0 0 0 
275 2 1 6.61879 53.7345 44.3927 0 0 0 
276 3 1 3.15362 53.1635 44.0511 0 0 0 
278 2 1 6.76345 51.054 49.3561 0 0 0 
279 3 1 3.46241 51.5393 51.2336 0 0 0 
280 1 1 11.0924 52.0397 50.9338 0 0 0 
277 1 1 9.99955 52.287 47.1139 0 0 0 
281 2 1 14.1115 53.7368 52.7859 0 0 0 
283 1 1 10.8913 50.7824 54.5612 0 0 0 
282 3 1 15.2207 56.6511 54.3993 0 0 0 
288 3 1 12.1111 42.3426 59.5804 0 0 0 
285 3 1 3.71991 48.6673 55.8577 0 0 0 
289 1 1 11.5229 49.7075 62.0595 0 0 0 
286 1 1 11.5289 49.6984 58.1876 0 0 0 
287 2 1 11.7269 45.8182 59.715 0 0 0 
284 2 1 7.51507 48.6255 54.8852 0 0 0 
292 1 1 12.9241 48.4996 65.3435 0 0 0 
290 2 1 8.67271 50.9497 64.7076 0 0 0 
291 3 1 5.77649 52.7409 66.4053 0 0 0 
293 2 1 14.2785 44.7168 65.8872 0 0 0 
294 3 1 16.3743 41.6803 65.3169 0 0 0 
298 1 1 15.1127 46.1855 71.7866 0 0 0 
299 2 1 18.3644 44.2049 70.5238 0 0 0 
300 3 1 20.8793 42.2989 68.8636 0 0 0 
295 1 1 13.8387 48.4441 69.147 0 0 0 
297 3 1 14.4996 52.0062 75.7305 0 0 0 
296 2 1 13.3257 50.8859 72.5162 0 0 0 
315 3 1 32.1718 38.0012 85.6485 0 0 0 
306 3 1 20.6639 36.0751 73.7455 0 0 0 
308 2 1 21.7003 37.2437 79.4801 0 0 0 
309 3 1 24.094 34.5652 79.47 0 0 0 
305 2 1 19.1255 38.3039 76.0559 0 0 0 
307 1 1 20.4422 40.8387 80.1741 0 0 0 
304 1 1 18.0856 42.0294 77.2671 0 0 0 