ITEM: TIMESTEP
0
ITEM: NUMBER OF ATOMS
462
ITEM: BOX BOUNDS pp pp pp
-241.205 241.205
-241.205 241.205
-241.205 241.205
ITEM: ATOMS id type mol x y z ix iy iz 
27 3 1 -46.998 -50.6504 -238.414 0 0 0 
30 3 1 -32.4622 -51.0608 -238.082 0 0 0 
26 2 1 -43.552 -49.9444 -239.656 0 0 0 
32 2 1 -42.3809 -48.4741 -232.619 0 0 0 
33 3 1 -45.827 -49.18 -231.377 0 0 0 
28 1 1 -39.5769 -49.1508 -238.009 0 0 0 
29 2 1 -36.0495 -50.09 -238.907 0 0 0 
31 1 1 -38.9914 -48.4156 -234.491 0 0 0 
35 2 1 -34.8784 -48.6197 -231.87 0 0 0 
440 2 1 37.2512 51.5081 -236.527 0 0 1 
441 3 1 33.8052 50.8022 -235.284 0 0 1 
439 1 1 40.6408 51.5666 -238.398 0 0 1 
442 1 1 41.2263 52.3018 -234.88 0 0 1 
443 2 1 44.7538 51.3626 -235.777 0 0 1 
444 3 1 48.341 50.3917 -234.952 0 0 1 
445 1 1 41.8118 53.0369 -231.361 0 0 1 
38 2 1 -41.2099 -47.0038 -225.583 0 0 0 
39 3 1 -44.6559 -47.7097 -224.34 0 0 0 
34 1 1 -38.4059 -47.6805 -230.972 0 0 0 
36 3 1 -31.2912 -49.5905 -231.045 0 0 0 
37 1 1 -37.8203 -46.9453 -227.454 0 0 0 
40 1 1 -37.2348 -46.2101 -223.936 0 0 0 
41 2 1 -33.7073 -47.1493 -224.833 0 0 0 
42 3 1 -30.1201 -48.1202 -224.008 0 0 0 
446 2 1 38.4223 52.9785 -229.49 0 0 1 
447 3 1 34.9762 52.2725 -228.248 0 0 1 
452 2 1 39.5934 54.4488 -222.453 0 0 1 
453 3 1 36.1473 53.7428 -221.211 0 0 1 
448 1 1 42.3974 53.7721 -227.843 0 0 1 
449 2 1 45.9248 52.8329 -228.741 0 0 1 
450 3 1 49.512 51.8621 -227.915 0 0 1 
451 1 1 42.9829 54.5073 -224.324 0 0 1 
455 2 1 47.0959 54.3032 -221.704 0 0 1 
45 3 1 -43.4849 -46.2394 -217.304 0 0 0 
43 1 1 -36.6493 -45.475 -220.417 0 0 0 
44 2 1 -40.0388 -45.5335 -218.546 0 0 0 
46 1 1 -36.0637 -44.7398 -216.899 0 0 0 
47 2 1 -32.5363 -45.679 -217.797 0 0 0 
49 1 1 -35.4782 -44.0046 -213.38 0 0 0 
50 2 1 -38.8677 -44.0631 -211.509 0 0 0 
48 3 1 -28.9491 -46.6499 -216.971 0 0 0 
459 3 1 37.3184 55.2132 -214.174 0 0 1 
454 1 1 43.5684 55.2424 -220.806 0 0 1 
457 1 1 44.154 55.9776 -217.288 0 0 1 
458 2 1 40.7644 55.9191 -215.416 0 0 1 
460 1 1 44.7395 56.7127 -213.769 0 0 1 
461 2 1 48.267 55.7736 -214.667 0 0 1 
456 3 1 50.6831 53.3324 -220.879 0 0 1 
462 3 1 51.8542 54.8027 -213.842 0 0 1 
51 3 1 -42.3138 -44.7691 -210.267 0 0 0 
57 3 1 -41.1427 -43.2987 -203.23 0 0 0 
52 1 1 -34.8927 -43.2695 -209.862 0 0 0 
53 2 1 -31.3652 -44.2087 -210.76 0 0 0 
55 1 1 -34.3072 -42.5343 -206.344 0 0 0 
56 2 1 -37.6967 -42.5928 -204.472 0 0 0 
58 1 1 -33.7216 -41.7991 -202.825 0 0 0 
59 2 1 -30.1942 -42.7383 -203.723 0 0 0 
54 3 1 -27.778 -45.1795 -209.935 0 0 0 
60 3 1 -26.6069 -43.7092 -202.898 0 0 0 
61 1 1 -33.1361 -41.064 -199.307 0 0 0 
62 2 1 -36.5256 -41.1225 -197.435 0 0 0 
63 3 1 -39.9717 -41.8284 -196.193 0 0 0 
64 1 1 -32.5506 -40.3288 -195.788 0 0 0 
65 2 1 -29.0231 -41.268 -196.686 0 0 0 
66 3 1 -25.4359 -42.2389 -195.861 0 0 0 
67 1 1 -31.965 -39.5937 -192.27 0 0 0 
69 3 1 -38.8006 -40.3581 -189.156 0 0 0 
72 3 1 -24.2648 -40.7685 -188.824 0 0 0 
68 2 1 -35.3546 -39.6521 -190.399 0 0 0 
70 1 1 -31.3795 -38.8585 -188.752 0 0 0 
73 1 1 -30.794 -38.1233 -185.233 0 0 0 
74 2 1 -34.1835 -38.1818 -183.362 0 0 0 
75 3 1 -37.6296 -38.8877 -182.12 0 0 0 
76 1 1 -30.2084 -37.3882 -181.715 0 0 0 
71 2 1 -27.852 -39.7977 -189.649 0 0 0 
77 2 1 -26.681 -38.3274 -182.613 0 0 0 
78 3 1 -23.0938 -39.2982 -181.787 0 0 0 
80 2 1 -33.0124 -36.7115 -176.325 0 0 0 
81 3 1 -36.4585 -37.4174 -175.083 0 0 0 
79 1 1 -29.6229 -36.653 -178.196 0 0 0 
82 1 1 -29.0374 -35.9178 -174.678 0 0 0 
83 2 1 -25.5099 -36.857 -175.576 0 0 0 
84 3 1 -21.9227 -37.8279 -174.75 0 0 0 
85 1 1 -28.4519 -35.1827 -171.16 0 0 0 
86 2 1 -31.8414 -35.2412 -169.288 0 0 0 
87 3 1 -35.2874 -35.9471 -168.046 0 0 0 
92 2 1 -30.6703 -33.7708 -162.251 0 0 0 
93 3 1 -34.1164 -34.4768 -161.009 0 0 0 
88 1 1 -27.8663 -34.4475 -167.641 0 0 0 
89 2 1 -24.3389 -35.3867 -168.539 0 0 0 
90 3 1 -20.7516 -36.3576 -167.714 0 0 0 
91 1 1 -27.2808 -33.7124 -164.123 0 0 0 
95 2 1 -23.1678 -33.9164 -161.502 0 0 0 
99 3 1 -32.9453 -33.0064 -153.972 0 0 0 
94 1 1 -26.6953 -32.9772 -160.604 0 0 0 
97 1 1 -26.1097 -32.242 -157.086 0 0 0 
98 2 1 -29.4992 -32.3005 -155.215 0 0 0 
100 1 1 -25.5242 -31.5069 -153.568 0 0 0 
101 2 1 -21.9967 -32.446 -154.465 0 0 0 
96 3 1 -19.5806 -34.8872 -160.677 0 0 0 
102 3 1 -18.4095 -33.4169 -153.64 0 0 0 
105 3 1 -31.7742 -31.5361 -146.936 0 0 0 
103 1 1 -24.9387 -30.7717 -150.049 0 0 0 
104 2 1 -28.3282 -30.8302 -148.178 0 0 0 
107 2 1 -20.8257 -30.9757 -147.429 0 0 0 
108 3 1 -17.2385 -31.9466 -146.603 0 0 0 
106 1 1 -24.3531 -30.0365 -146.531 0 0 0 
109 1 1 -23.7676 -29.3014 -143.012 0 0 0 
110 2 1 -27.1571 -29.3599 -141.141 0 0 0 
114 3 1 -16.0674 -30.4763 -139.566 0 0 0 
111 3 1 -30.6032 -30.0658 -139.899 0 0 0 
112 1 1 -23.1821 -28.5662 -139.494 0 0 0 
115 1 1 -22.5965 -27.831 -135.976 0 0 0 
116 2 1 -25.9861 -27.8895 -134.104 0 0 0 
117 3 1 -29.4321 -28.5954 -132.862 0 0 0 
118 1 1 -22.011 -27.0959 -132.457 0 0 0 
113 2 1 -19.6546 -29.5054 -140.392 0 0 0 
119 2 1 -18.4836 -28.0351 -133.355 0 0 0 
120 3 1 -14.8963 -29.0059 -132.53 0 0 0 
121 1 1 -21.4255 -26.3607 -128.939 0 0 0 
122 2 1 -24.815 -26.4192 -127.067 0 0 0 
123 3 1 -28.2611 -27.1251 -125.825 0 0 0 
124 1 1 -20.84 -25.6256 -125.42 0 0 0 
127 1 1 -20.2544 -24.8904 -121.902 0 0 0 
125 2 1 -17.3125 -26.5647 -126.318 0 0 0 
126 3 1 -13.7253 -27.5356 -125.493 0 0 0 
128 2 1 -23.6439 -24.9489 -120.031 0 0 0 
129 3 1 -27.09 -25.6548 -118.788 0 0 0 
134 2 1 -22.4729 -23.4785 -112.994 0 0 0 
135 3 1 -25.9189 -24.1845 -111.752 0 0 0 
130 1 1 -19.6689 -24.1552 -118.384 0 0 0 
131 2 1 -16.1414 -25.0944 -119.281 0 0 0 
132 3 1 -12.5542 -26.0653 -118.456 0 0 0 
133 1 1 -19.0834 -23.4201 -114.865 0 0 0 
136 1 1 -18.4978 -22.6849 -111.347 0 0 0 
137 2 1 -14.9704 -23.6241 -112.245 0 0 0 
138 3 1 -11.3831 -24.595 -111.419 0 0 0 
140 2 1 -21.3018 -22.0082 -105.957 0 0 0 
141 3 1 -24.7479 -22.7141 -104.715 0 0 0 
139 1 1 -17.9123 -21.9497 -107.828 0 0 0 
142 1 1 -17.3268 -21.2146 -104.31 0 0 0 
143 2 1 -13.7993 -22.1538 -105.208 0 0 0 
144 3 1 -10.2121 -23.1246 -104.382 0 0 0 
145 1 1 -16.7412 -20.4794 -100.792 0 0 0 
146 2 1 -20.1307 -20.5379 -98.9203 0 0 0 
147 3 1 -23.5768 -21.2438 -97.6781 0 0 0 
149 2 1 -12.6282 -20.6834 -98.1709 0 0 0 
150 3 1 -9.04103 -21.6543 -97.3458 0 0 0 
153 3 1 -22.4058 -19.7735 -90.6412 0 0 0 
148 1 1 -16.1557 -19.7443 -97.2732 0 0 0 
151 1 1 -15.5702 -19.0091 -93.7548 0 0 0 
152 2 1 -18.9597 -19.0676 -91.8835 0 0 0 
155 2 1 -11.4572 -19.2131 -91.1341 0 0 0 
156 3 1 -7.86996 -20.184 -90.309 0 0 0 
159 3 1 -21.2347 -18.3032 -83.6044 0 0 0 
154 1 1 -14.9846 -18.2739 -90.2364 0 0 0 
157 1 1 -14.3991 -17.5388 -86.718 0 0 0 
158 2 1 -17.7886 -17.5972 -84.8467 0 0 0 
160 1 1 -13.8136 -16.8036 -83.1996 0 0 0 
161 2 1 -10.2861 -17.7428 -84.0973 0 0 0 
162 3 1 -6.6989 -18.7136 -83.2722 0 0 0 
163 1 1 -13.228 -16.0684 -79.6812 0 0 0 
164 2 1 -16.6176 -16.1269 -77.8099 0 0 0 
165 3 1 -20.0636 -16.8328 -76.5677 0 0 0 
166 1 1 -12.6425 -15.3333 -76.1628 0 0 0 
169 1 1 -12.057 -14.5981 -72.6444 0 0 0 
170 2 1 -15.4465 -14.6566 -70.7731 0 0 0 
167 2 1 -9.11506 -16.2724 -77.0605 0 0 0 
168 3 1 -5.52784 -17.2433 -76.2353 0 0 0 
171 3 1 -18.8926 -15.3625 -69.5309 0 0 0 
172 1 1 -11.4715 -13.8629 -69.126 0 0 0 
175 1 1 -10.8859 -13.1278 -65.6076 0 0 0 
176 2 1 -14.2754 -13.1863 -63.7363 0 0 0 
177 3 1 -17.7215 -13.8922 -62.4941 0 0 0 
178 1 1 -10.3004 -12.3926 -62.0892 0 0 0 
173 2 1 -7.944 -14.8021 -70.0237 0 0 0 
174 3 1 -4.35678 -15.773 -69.1985 0 0 0 
179 2 1 -6.77294 -13.3318 -62.9869 0 0 0 
180 3 1 -3.18572 -14.3027 -62.1617 0 0 0 
182 2 1 -13.1044 -11.7159 -56.6995 0 0 0 
183 3 1 -16.5505 -12.4218 -55.4573 0 0 0 
181 1 1 -9.71487 -11.6575 -58.5708 0 0 0 
184 1 1 -9.12934 -10.9223 -55.0524 0 0 0 
185 2 1 -5.60187 -11.8615 -55.9501 0 0 0 
186 3 1 -2.01466 -12.8323 -55.1249 0 0 0 
187 1 1 -8.54381 -10.1871 -51.534 0 0 0 
188 2 1 -11.9333 -10.2456 -49.6627 0 0 0 
189 3 1 -15.3794 -10.9515 -48.4205 0 0 0 
191 2 1 -4.43081 -10.3911 -48.9133 0 0 0 
192 3 1 -0.843596 -11.362 -48.0881 0 0 0 
194 2 1 -10.7623 -8.77528 -42.6259 0 0 0 
195 3 1 -14.2083 -9.4812 -41.3836 0 0 0 
190 1 1 -7.95828 -9.45196 -48.0156 0 0 0 
193 1 1 -7.37275 -8.7168 -44.4972 0 0 0 
196 1 1 -6.78722 -7.98163 -40.9788 0 0 0 
197 2 1 -3.25975 -8.92082 -41.8765 0 0 0 
198 3 1 0.327464 -9.89168 -41.0513 0 0 0 
201 3 1 -13.0373 -8.01088 -34.3468 0 0 0 
199 1 1 -6.20169 -7.24647 -37.4604 0 0 0 
200 2 1 -9.59121 -7.30495 -35.5891 0 0 0 
202 1 1 -5.61616 -6.51131 -33.942 0 0 0 
203 2 1 -2.08869 -7.45049 -34.8397 0 0 0 
205 1 1 -5.03063 -5.77614 -30.4236 0 0 0 
204 3 1 1.49853 -8.42135 -34.0145 0 0 0 
207 3 1 -11.8662 -6.54055 -27.31 0 0 0 
213 3 1 -10.6951 -5.07022 -20.2732 0 0 0 
206 2 1 -8.42014 -5.83463 -28.5523 0 0 0 
208 1 1 -4.4451 -5.04098 -26.9052 0 0 0 
209 2 1 -0.91763 -5.98017 -27.8029 0 0 0 
211 1 1 -3.85956 -4.30582 -23.3868 0 0 0 
212 2 1 -7.24908 -4.3643 -21.5155 0 0 0 
210 3 1 2.66959 -6.95103 -26.9778 0 0 0 
215 2 1 0.253431 -4.50984 -20.7661 0 0 0 
214 1 1 -3.27403 -3.57065 -19.8684 0 0 0 
217 1 1 -2.6885 -2.83549 -16.35 0 0 0 
218 2 1 -6.07802 -2.89397 -14.4787 0 0 0 
219 3 1 -9.52409 -3.5999 -13.2364 0 0 0 
220 1 1 -2.10297 -2.10033 -12.8316 0 0 0 
216 3 1 3.84065 -5.4807 -19.9409 0 0 0 
221 2 1 1.42449 -3.03951 -13.7293 0 0 0 
222 3 1 5.01171 -4.01037 -12.9041 0 0 0 
223 1 1 -1.51744 -1.36516 -9.31319 0 0 0 
224 2 1 -4.90696 -1.42365 -7.44193 0 0 0 
225 3 1 -8.35303 -2.12957 -6.19964 0 0 0 
226 1 1 -0.931911 -0.629998 -5.79479 0 0 0 
227 2 1 2.59555 -1.56918 -6.69249 0 0 0 
228 3 1 6.18277 -2.54004 -5.86735 0 0 0 
229 1 1 -0.34638 0.105164 -2.27638 0 0 0 
230 2 1 -3.7359 0.046681 -0.405124 0 0 0 
231 3 1 -7.18197 -0.659241 0.837158 0 0 0 
233 2 1 3.76661 -0.098857 0.344313 0 0 0 
234 3 1 7.35383 -1.06972 1.16945 0 0 0 
236 2 1 -2.56484 1.51701 6.63168 0 0 0 
237 3 1 -6.01091 0.811085 7.87396 0 0 0 
232 1 1 0.23915 0.840328 1.24202 0 0 0 
235 1 1 0.82468 1.57549 4.76042 0 0 0 
238 1 1 1.41021 2.31066 8.27882 0 0 0 
239 2 1 4.93768 1.37147 7.38111 0 0 0 
240 3 1 8.52489 0.400609 8.20626 0 0 0 
242 2 1 -1.39377 2.98733 13.6685 0 0 0 
243 3 1 -4.83985 2.28141 14.9108 0 0 0 
241 1 1 1.99574 3.04582 11.7972 0 0 0 
244 1 1 2.58127 3.78098 15.3156 0 0 0 
245 2 1 6.10874 2.8418 14.4179 0 0 0 
246 3 1 9.69595 1.87094 15.2431 0 0 0 
247 1 1 3.1668 4.51615 18.834 0 0 0 
248 2 1 -0.222713 4.45766 20.7053 0 0 0 
249 3 1 -3.66878 3.75174 21.9476 0 0 0 
255 3 1 -2.49772 5.22207 28.9844 0 0 0 
250 1 1 3.75233 5.25131 22.3524 0 0 0 
251 2 1 7.2798 4.31212 21.4547 0 0 0 
253 1 1 4.33786 5.98647 25.8708 0 0 0 
254 2 1 0.948347 5.92799 27.7421 0 0 0 
256 1 1 4.9234 6.72164 29.3892 0 0 0 
257 2 1 8.45086 5.78245 28.4915 0 0 0 
252 3 1 10.867 3.34126 22.2798 0 0 0 
258 3 1 12.0381 4.81159 29.3167 0 0 0 
261 3 1 -1.32666 6.69239 36.0212 0 0 0 
259 1 1 5.50893 7.4568 32.9076 0 0 0 
260 2 1 2.11941 7.39832 34.7789 0 0 0 
262 1 1 6.09446 8.19196 36.426 0 0 0 
263 2 1 9.62192 7.25278 35.5283 0 0 0 
265 1 1 6.67999 8.92713 39.9444 0 0 0 
264 3 1 13.2091 6.28192 36.3535 0 0 0 
267 3 1 -0.155599 8.16272 43.058 0 0 0 
266 2 1 3.29047 8.86864 41.8157 0 0 0 
268 1 1 7.26552 9.66229 43.4628 0 0 0 
273 3 1 1.01546 9.63305 50.0948 0 0 0 
269 2 1 10.793 8.72311 42.5651 0 0 0 
270 3 1 14.3802 7.75224 43.3903 0 0 0 
271 1 1 7.85105 10.3974 46.9812 0 0 0 
272 2 1 4.46153 10.339 48.8525 0 0 0 
275 2 1 11.964 10.1934 49.6019 0 0 0 
276 3 1 15.5513 9.22257 50.4271 0 0 0 
274 1 1 8.43658 11.1326 50.4996 0 0 0 
277 1 1 9.02211 11.8678 54.018 0 0 0 
278 2 1 5.63259 11.8093 55.8893 0 0 0 
279 3 1 2.18652 11.1034 57.1316 0 0 0 
280 1 1 9.60764 12.6029 57.5364 0 0 0 
281 2 1 13.1351 11.6638 56.6387 0 0 0 
282 3 1 16.7223 10.6929 57.4639 0 0 0 
284 2 1 6.80365 13.2796 62.9261 0 0 0 
285 3 1 3.35758 12.5737 64.1684 0 0 0 
290 2 1 7.97472 14.75 69.9629 0 0 0 
283 1 1 10.1932 13.3381 61.0548 0 0 0 
286 1 1 10.7787 14.0733 64.5732 0 0 0 
287 2 1 14.3062 13.1341 63.6755 0 0 0 
288 3 1 17.8934 12.1632 64.5007 0 0 0 
289 1 1 11.3642 14.8084 68.0916 0 0 0 
291 3 1 4.52865 14.044 71.2052 0 0 0 
296 2 1 9.14578 16.2203 76.9997 0 0 0 
297 3 1 5.69971 15.5144 78.242 0 0 0 
292 1 1 11.9498 15.5436 71.61 0 0 0 
293 2 1 15.4772 14.6044 70.7123 0 0 0 
294 3 1 19.0644 13.6335 71.5375 0 0 0 
295 1 1 12.5353 16.2788 75.1284 0 0 0 
298 1 1 13.1208 17.0139 78.6468 0 0 0 
299 2 1 16.6483 16.0747 77.7491 0 0 0 
300 3 1 20.2355 15.1039 78.5743 0 0 0 
303 3 1 6.87077 16.9847 85.2788 0 0 0 
301 1 1 13.7064 17.7491 82.1652 0 0 0 
302 2 1 10.3168 17.6906 84.0365 0 0 0 
304 1 1 14.2919 18.4842 85.6836 0 0 0 
305 2 1 17.8194 17.5451 84.7859 0 0 0 
307 1 1 14.8774 19.2194 89.202 0 0 0 
306 3 1 21.4066 16.5742 85.6111 0 0 0 
309 3 1 8.04183 18.455 92.3156 0 0 0 
315 3 1 9.21289 19.9253 99.3524 0 0 0 
308 2 1 11.4879 19.1609 91.0733 0 0 0 
310 1 1 15.4629 19.9546 92.7204 0 0 0 
311 2 1 18.9904 19.0154 91.8227 0 0 0 
312 3 1 22.5776 18.0445 92.6479 0 0 0 
318 3 1 23.7487 19.5149 99.6847 0 0 0 
313 1 1 16.0485 20.6897 96.2388 0 0 0 
314 2 1 12.659 20.6313 98.1101 0 0 0 
316 1 1 16.634 21.4249 99.7572 0 0 0 
317 2 1 20.1615 20.4857 98.8595 0 0 0 
319 1 1 17.2195 22.1601 103.276 0 0 0 
320 2 1 13.83 22.1016 105.147 0 0 0 
321 3 1 10.384 21.3957 106.389 0 0 0 
322 1 1 17.8051 22.8952 106.794 0 0 0 
325 1 1 18.3906 23.6304 110.312 0 0 0 
323 2 1 21.3325 21.956 105.896 0 0 0 
324 3 1 24.9198 20.9852 106.721 0 0 0 
326 2 1 15.0011 23.5719 112.184 0 0 0 
327 3 1 11.555 22.866 113.426 0 0 0 
328 1 1 18.9761 24.3656 113.831 0 0 0 
331 1 1 19.5617 25.1007 117.349 0 0 0 
332 2 1 16.1721 25.0422 119.22 0 0 0 
333 3 1 12.7261 24.3363 120.463 0 0 0 
329 2 1 22.5036 23.4264 112.933 0 0 0 
330 3 1 26.0908 22.4555 113.758 0 0 0 
335 2 1 23.6747 24.8967 119.97 0 0 0 
338 2 1 17.3432 26.5126 126.257 0 0 0 
339 3 1 13.8971 25.8066 127.499 0 0 0 
334 1 1 20.1472 25.8359 120.868 0 0 0 
336 3 1 27.2619 23.9258 120.795 0 0 0 
337 1 1 20.7327 26.571 124.386 0 0 0 
340 1 1 21.3182 27.3062 127.904 0 0 0 
341 2 1 24.8457 26.367 127.007 0 0 0 
342 3 1 28.4329 25.3962 127.832 0 0 0 
344 2 1 18.5143 27.9829 133.294 0 0 0 
345 3 1 15.0682 27.277 134.536 0 0 0 
350 2 1 19.6853 29.4532 140.331 0 0 0 
343 1 1 21.9038 28.0414 131.423 0 0 0 
346 1 1 22.4893 28.7765 134.941 0 0 0 
347 2 1 26.0168 27.8374 134.043 0 0 0 
348 3 1 29.604 26.8665 134.869 0 0 0 
349 1 1 23.0748 29.5117 138.46 0 0 0 
351 3 1 16.2393 28.7473 141.573 0 0 0 
353 2 1 27.1878 29.3077 141.08 0 0 0 
354 3 1 30.7751 28.3368 141.905 0 0 0 
360 3 1 31.9461 29.8072 148.942 0 0 0 
357 3 1 17.4103 30.2176 148.61 0 0 0 
352 1 1 23.6604 30.2469 141.978 0 0 0 
355 1 1 24.2459 30.982 145.496 0 0 0 
356 2 1 20.8564 30.9235 147.368 0 0 0 
358 1 1 24.8314 31.7172 149.015 0 0 0 
359 2 1 28.3589 30.778 148.117 0 0 0 
363 3 1 18.5814 31.688 155.647 0 0 0 
361 1 1 25.417 32.4524 152.533 0 0 0 
362 2 1 22.0275 32.3939 154.405 0 0 0 
364 1 1 26.0025 33.1875 156.052 0 0 0 
365 2 1 29.53 32.2483 155.154 0 0 0 
367 1 1 26.588 33.9227 159.57 0 0 0 
366 3 1 33.1172 31.2775 155.979 0 0 0 
369 3 1 19.7524 33.1583 162.684 0 0 0 
368 2 1 23.1985 33.8642 161.441 0 0 0 
370 1 1 27.1736 34.6579 163.088 0 0 0 
373 1 1 27.7591 35.393 166.607 0 0 0 
374 2 1 24.3696 35.3345 168.478 0 0 0 
375 3 1 20.9235 34.6286 169.72 0 0 0 
376 1 1 28.3446 36.1282 170.125 0 0 0 
371 2 1 30.701 33.7187 162.191 0 0 0 
372 3 1 34.2882 32.7478 163.016 0 0 0 
377 2 1 31.8721 35.189 169.227 0 0 0 
378 3 1 35.4593 34.2181 170.053 0 0 0 
379 1 1 28.9302 36.8633 173.644 0 0 0 
380 2 1 25.5406 36.8049 175.515 0 0 0 
381 3 1 22.0946 36.0989 176.757 0 0 0 
382 1 1 29.5157 37.5985 177.162 0 0 0 
385 1 1 30.1012 38.3337 180.68 0 0 0 
383 2 1 33.0431 36.6593 176.264 0 0 0 
384 3 1 36.6304 35.6885 177.089 0 0 0 
386 2 1 26.7117 38.2752 182.552 0 0 0 
387 3 1 23.2656 37.5693 183.794 0 0 0 
392 2 1 27.8828 39.7455 189.589 0 0 0 
393 3 1 24.4367 39.0396 190.831 0 0 0 
388 1 1 30.6867 39.0688 184.199 0 0 0 
389 2 1 34.2142 38.1296 183.301 0 0 0 
390 3 1 37.8014 37.1588 184.126 0 0 0 
391 1 1 31.2723 39.804 187.717 0 0 0 
395 2 1 35.3853 39.6 190.338 0 0 0 
396 3 1 38.9725 38.6291 191.163 0 0 0 
402 3 1 40.1435 40.0994 198.2 0 0 0 
398 2 1 29.0538 41.2158 196.625 0 0 0 
399 3 1 25.6077 40.5099 197.868 0 0 0 
394 1 1 31.8578 40.5391 191.236 0 0 0 
397 1 1 32.4433 41.2743 194.754 0 0 0 
400 1 1 33.0289 42.0095 198.272 0 0 0 
401 2 1 36.5563 41.0703 197.375 0 0 0 
405 3 1 26.7788 41.9802 204.904 0 0 0 
403 1 1 33.6144 42.7446 201.791 0 0 0 
404 2 1 30.2249 42.6862 203.662 0 0 0 
406 1 1 34.1999 43.4798 205.309 0 0 0 
407 2 1 37.7274 42.5406 204.411 0 0 0 
409 1 1 34.7855 44.215 208.828 0 0 0 
410 2 1 31.3959 44.1565 210.699 0 0 0 
408 3 1 41.3146 41.5698 205.237 0 0 0 
3 3 1 -51.6823 -56.5317 215.848 0 0 -1 
1 1 1 -44.8467 -55.7673 212.735 0 0 -1 
2 2 1 -48.2362 -55.8257 214.606 0 0 -1 
4 1 1 -44.2612 -55.0321 216.253 0 0 -1 
5 2 1 -40.7337 -55.9713 215.356 0 0 -1 
7 1 1 -43.6756 -54.2969 219.772 0 0 -1 
6 3 1 -37.1465 -56.9421 216.181 0 0 -1 
411 3 1 27.9499 43.4506 211.941 0 0 0 
417 3 1 29.1209 44.9209 218.978 0 0 0 
412 1 1 35.371 44.9501 212.346 0 0 0 
413 2 1 38.8984 44.011 211.448 0 0 0 
415 1 1 35.9565 45.6853 215.864 0 0 0 
416 2 1 32.567 45.6268 217.736 0 0 0 
418 1 1 36.5421 46.4205 219.383 0 0 0 
419 2 1 40.0695 45.4813 218.485 0 0 0 
414 3 1 42.4857 43.0401 212.273 0 0 0 
420 3 1 43.6567 44.5104 219.31 0 0 0 
9 3 1 -50.5112 -55.0613 222.885 0 0 -1 
8 2 1 -47.0652 -54.3554 221.643 0 0 -1 
10 1 1 -43.0901 -53.5618 223.29 0 0 -1 
13 1 1 -42.5046 -52.8266 226.808 0 0 -1 
14 2 1 -45.8941 -52.8851 228.68 0 0 -1 
15 3 1 -49.3402 -53.591 229.922 0 0 -1 
16 1 1 -41.9191 -52.0914 230.327 0 0 -1 
11 2 1 -39.5626 -54.501 222.392 0 0 -1 
12 3 1 -35.9754 -55.4718 223.218 0 0 -1 
17 2 1 -38.3916 -53.0306 229.429 0 0 -1 
18 3 1 -34.8044 -54.0015 230.254 0 0 -1 
421 1 1 37.1276 47.1556 222.901 0 0 0 
422 2 1 33.7381 47.0971 224.773 0 0 0 
423 3 1 30.292 46.3912 226.015 0 0 0 
424 1 1 37.7131 47.8908 226.42 0 0 0 
427 1 1 38.2986 48.626 229.938 0 0 0 
425 2 1 41.2406 46.9516 225.522 0 0 0 
426 3 1 44.8278 45.9807 226.347 0 0 0 
19 1 1 -41.3335 -51.3563 233.845 0 0 -1 
20 2 1 -44.723 -51.4148 235.717 0 0 -1 
21 3 1 -48.1691 -52.1207 236.959 0 0 -1 
22 1 1 -40.748 -50.6211 237.364 0 0 -1 
23 2 1 -37.2205 -51.5603 236.466 0 0 -1 
24 3 1 -33.6333 -52.5312 237.291 0 0 -1 
25 1 1 -40.1625 -49.886 240.882 0 0 -1 
428 2 1 34.9091 48.5675 231.809 0 0 0 
429 3 1 31.463 47.8616 233.052 0 0 0 
430 1 1 38.8842 49.3611 233.456 0 0 0 
433 1 1 39.4697 50.0963 236.975 0 0 0 
434 2 1 36.0802 50.0378 238.846 0 0 0 
435 3 1 32.6341 49.3319 240.088 0 0 0 
431 2 1 42.4116 48.4219 232.559 0 0 0 
432 3 1 45.9989 47.4511 233.384 0 0 0 
437 2 1 43.5827 49.8923 239.595 0 0 0 
438 3 1 47.1699 48.9214 240.421 0 0 0 
436 1 1 40.0552 50.8314 240.493 0 0 0 
ITEM: TIMESTEP
100000
ITEM: NUMBER OF ATOMS
462
ITEM: BOX BOUNDS pp pp pp
-241.205 241.205
-241.205 241.205
-241.205 241.205
ITEM: ATOMS id type mol x y z ix iy iz 
15 3 1 -43.9265 -72.8241 -200.149 0 0 0 
18 3 1 -45.6765 -66.9641 -204.998 0 0 0 
6 3 1 -36.3052 -79.9962 -210.142 0 0 0 
5 2 1 -34.0337 -80.6734 -207.443 0 0 0 
7 1 1 -31.4565 -77.0582 -204.521 0 0 0 
10 1 1 -33.925 -74.268 -203.357 0 0 0 
14 2 1 -40.4754 -71.7444 -201.193 0 0 0 
13 1 1 -36.8161 -71.842 -202.642 0 0 0 
11 2 1 -32.4192 -70.4614 -202.548 0 0 0 
12 3 1 -33.2033 -67.4641 -204.136 0 0 0 
16 1 1 -38.2339 -68.1999 -202.81 0 0 0 
19 1 1 -38.7608 -64.3155 -203.522 0 0 0 
20 2 1 -35.5531 -62.372 -201.843 0 0 0 
17 2 1 -42.273 -67.6213 -203.442 0 0 0 
21 3 1 -32.0876 -62.5755 -202.207 0 0 0 
24 3 1 -45.0579 -57.1397 -204.748 0 0 0 
23 2 1 -42.1175 -58.6442 -205.864 0 0 0 
26 2 1 -40.9629 -54.1665 -205.98 0 0 0 
27 3 1 -42.3433 -51.5152 -207.588 0 0 0 
22 1 1 -38.7616 -60.5054 -204.553 0 0 0 
25 1 1 -37.938 -56.7945 -205.489 0 0 0 
28 1 1 -35.8513 -53.6303 -206.336 0 0 0 
29 2 1 -31.8506 -53.4056 -207.094 0 0 0 
30 3 1 -28.9903 -54.4249 -205.433 0 0 0 
31 1 1 -35.0363 -49.871 -206.929 0 0 0 
33 3 1 -38.9184 -47.3766 -212.723 0 0 0 
32 2 1 -37.0671 -47.6853 -209.613 0 0 0 
35 2 1 -35.6952 -43.4907 -208.054 0 0 0 
37 1 1 -31.7562 -43.0847 -205.237 0 0 0 
34 1 1 -33.531 -46.3851 -206.227 0 0 0 
38 2 1 -28.2273 -43.5146 -203.241 0 0 0 
42 3 1 -36.1322 -34.6627 -203.798 0 0 0 
36 3 1 -39.0467 -42.6798 -209.792 0 0 0 
41 2 1 -33.3464 -36.7761 -204.275 0 0 0 
43 1 1 -29.585 -36.2675 -203.067 0 0 0 
40 1 1 -31.0357 -39.5585 -204.174 0 0 0 
44 2 1 -25.6483 -35.5934 -203.924 0 0 0 
39 3 1 -26.2216 -40.3796 -202.719 0 0 0 
46 1 1 -29.2932 -32.6897 -201.909 0 0 0 
45 3 1 -22.4192 -36.2846 -205.817 0 0 0 
3 3 1 -24.9807 -77.3108 -207.02 0 0 0 
2 2 1 -25.2082 -80.8332 -206.71 0 0 0 
4 1 1 -30.1556 -80.3391 -206.255 0 0 0 
1 1 1 -28.0442 -83.4215 -207.703 0 0 0 
8 2 1 -28.7635 -74.9782 -202.349 0 0 0 
9 3 1 -25.8331 -74.3611 -200.419 0 0 0 
48 3 1 -36.3862 -30.8055 -200.516 0 0 0 
47 2 1 -32.637 -31.3939 -200.525 0 0 0 
58 1 1 -30.3982 -20.9532 -193.049 0 0 0 
49 1 1 -28.3574 -29.1159 -200.844 0 0 0 
53 2 1 -32.0611 -26.2051 -196.561 0 0 0 
52 1 1 -29.0674 -26.0937 -198.473 0 0 0 
55 1 1 -28.9954 -23.2486 -195.991 0 0 0 
50 2 1 -25.785 -26.6866 -201.407 0 0 0 
51 3 1 -22.305 -25.2754 -202.046 0 0 0 
60 3 1 -33.2785 -13.9035 -193.497 0 0 0 
59 2 1 -31.2016 -16.9143 -193.135 0 0 0 
56 2 1 -26.5742 -20.1762 -195.8 0 0 0 
57 3 1 -23.9649 -19.1563 -193.182 0 0 0 
66 3 1 -33.871 -12.3044 -185.911 0 0 0 
65 2 1 -35.0253 -15.9781 -185.37 0 0 0 
64 1 1 -34.1352 -19.6246 -186.344 0 0 0 
54 3 1 -34.7663 -28.5353 -196.143 0 0 0 
61 1 1 -32.1519 -20.75 -189.662 0 0 0 
62 2 1 -32.8085 -23.6375 -187.304 0 0 0 
63 3 1 -34.1117 -26.9884 -187.442 0 0 0 
67 1 1 -36.0472 -19.5523 -182.899 0 0 0 
77 2 1 -40.8655 -13.4842 -171.203 0 0 0 
78 3 1 -44.3349 -12.2082 -172.001 0 0 0 
72 3 1 -36.8166 -10.8906 -180.347 0 0 0 
71 2 1 -37.9061 -14.1794 -179.816 0 0 0 
76 1 1 -38.5347 -16.4365 -172.442 0 0 0 
68 2 1 -36.0819 -23.1305 -180.929 0 0 0 
69 3 1 -35.0754 -26.8614 -180.53 0 0 0 
73 1 1 -37.8459 -18.1144 -175.818 0 0 0 
74 2 1 -35.0066 -20.5551 -173.905 0 0 0 
75 3 1 -32.3844 -20.5416 -176.63 0 0 0 
70 1 1 -37.4839 -18.1908 -179.602 0 0 0 
84 3 1 -34.6048 -11.0121 -161.879 0 0 0 
81 3 1 -33.2252 -21.3217 -165.305 0 0 0 
83 2 1 -37.7276 -12.8805 -163.036 0 0 0 
79 1 1 -37.9122 -16.3799 -168.545 0 0 0 
82 1 1 -38.4001 -16.5603 -164.727 0 0 0 
85 1 1 -39.7842 -16.7628 -160.997 0 0 0 
80 2 1 -34.7545 -18.8261 -167.317 0 0 0 
86 2 1 -37.5643 -17.4045 -158.049 0 0 0 
87 3 1 -33.8194 -17.2066 -158.138 0 0 0 
90 3 1 -46.4941 -15.6906 -161.89 0 0 0 
89 2 1 -46.4509 -16.6557 -158.556 0 0 0 
88 1 1 -42.5622 -16.3332 -158.365 0 0 0 
91 1 1 -43.17 -15.6988 -154.483 0 0 0 
94 1 1 -43.8222 -14.5831 -150.727 0 0 0 
92 2 1 -40.5463 -17.1771 -152.419 0 0 0 
93 3 1 -36.9165 -16.2677 -152.118 0 0 0 
96 3 1 -50.5834 -14.1536 -147.591 0 0 0 
99 3 1 -49.322 -11.9715 -143.18 0 0 0 
95 2 1 -47.4099 -14.2001 -149.049 0 0 0 
98 2 1 -46.3056 -12.373 -144.848 0 0 0 
97 1 1 -43.4416 -14.2063 -146.827 0 0 0 
100 1 1 -42.5397 -14.4439 -143.066 0 0 0 
103 1 1 -42.2576 -14.1767 -139.143 0 0 0 
101 2 1 -38.9637 -13.8818 -142.425 0 0 0 
102 3 1 -36.7795 -13.9225 -145.327 0 0 0 
105 3 1 -48.8769 -14.3083 -137.604 0 0 0 
104 2 1 -45.3959 -12.9367 -136.838 0 0 0 
106 1 1 -41.1098 -13.439 -135.561 0 0 0 
109 1 1 -40.664 -13.0599 -131.801 0 0 0 
107 2 1 -37.2146 -14.1621 -134.319 0 0 0 
108 3 1 -33.8535 -16.027 -133.916 0 0 0 
110 2 1 -43.0601 -13.8746 -128.533 0 0 0 
111 3 1 -46.7014 -13.7951 -126.996 0 0 0 
112 1 1 -38.321 -11.7671 -128.852 0 0 0 
113 2 1 -34.9604 -12.8447 -128.573 0 0 0 
115 1 1 -36.5499 -10.2496 -125.786 0 0 0 
121 1 1 -30.3758 -10.6149 -121.158 0 0 0 
116 2 1 -37.1719 -6.57856 -124.306 0 0 0 
118 1 1 -33.7845 -9.9909 -123.098 0 0 0 
122 2 1 -26.5222 -11.5327 -122.078 0 0 0 
114 3 1 -32.1737 -15.5036 -128.588 0 0 0 
123 3 1 -24.8127 -14.0916 -124.476 0 0 0 
124 1 1 -27.8981 -10.1632 -118.272 0 0 0 
126 3 1 -26.4554 -3.16747 -116.77 0 0 0 
125 2 1 -28.3881 -6.43298 -116.67 0 0 0 
128 2 1 -23.3174 -12.833 -113.325 0 0 0 
127 1 1 -25.8167 -10.1275 -114.961 0 0 0 
117 3 1 -38.5335 -4.11115 -122.333 0 0 0 
119 2 1 -34.3638 -7.99475 -119.711 0 0 0 
120 3 1 -34.5815 -5.01469 -117.524 0 0 0 
130 1 1 -24.5629 -8.49863 -111.627 0 0 0 
131 2 1 -25.3228 -4.85908 -110.195 0 0 0 
132 3 1 -27.5342 -2.0206 -110.438 0 0 0 
129 3 1 -22.0322 -16.4723 -112.703 0 0 0 
134 2 1 -22.3575 -9.88234 -105.038 0 0 0 
135 3 1 -23.8119 -11.403 -102.166 0 0 0 
133 1 1 -22.5906 -7.69008 -108.508 0 0 0 
136 1 1 -19.7035 -5.69089 -106.728 0 0 0 
139 1 1 -16.8431 -4.65004 -104.4 0 0 0 
137 2 1 -19.5027 -1.67817 -107.208 0 0 0 
140 2 1 -14.7784 -1.37161 -105.478 0 0 0 
142 1 1 -14.4668 -4.49677 -101.418 0 0 0 
141 3 1 -11.4584 -0.0641251 -106.846 0 0 0 
138 3 1 -20.5499 1.94855 -106.301 0 0 0 
144 3 1 -16.7731 -9.8533 -96.8371 0 0 0 
143 2 1 -15.978 -6.51074 -98.1935 0 0 0 
149 2 1 -5.3365 -4.83043 -94.9145 0 0 0 
145 1 1 -11.3522 -4.13845 -98.918 0 0 0 
148 1 1 -9.24346 -4.6153 -95.6365 0 0 0 
151 1 1 -9.22167 -5.45912 -91.741 0 0 0 
146 2 1 -7.54117 -2.78753 -99.5675 0 0 0 
147 3 1 -3.96627 -2.62702 -100.329 0 0 0 
158 2 1 -10.2724 -7.35728 -82.4327 0 0 0 
159 3 1 -14.033 -7.09 -82.3037 0 0 0 
157 1 1 -7.44139 -6.84447 -84.4771 0 0 0 
160 1 1 -5.92236 -7.8982 -80.9532 0 0 0 
161 2 1 -1.92069 -8.15697 -79.8663 0 0 0 
162 3 1 0.363453 -10.8263 -79.9014 0 0 0 
150 3 1 -2.96373 -5.51966 -92.4921 0 0 0 
152 2 1 -12.5557 -6.27532 -89.5497 0 0 0 
153 3 1 -15.3326 -7.98692 -88.3613 0 0 0 
156 3 1 -1.59414 -1.93201 -85.7353 0 0 0 
155 2 1 -4.3328 -4.25137 -86.401 0 0 0 
154 1 1 -7.76656 -5.60954 -88.1927 0 0 0 
163 1 1 -5.5982 -9.14148 -77.245 0 0 0 
169 1 1 -6.72729 -12.0232 -70.1502 0 0 0 
167 2 1 -2.89104 -9.23122 -71.0863 0 0 0 
166 1 1 -5.89433 -10.5698 -73.6012 0 0 0 
164 2 1 -2.13811 -8.26232 -75.5283 0 0 0 
168 3 1 -0.253538 -9.03272 -68.7917 0 0 0 
165 3 1 0.606811 -6.18819 -74.0699 0 0 0 
177 3 1 -11.1711 -21.5908 -61.7909 0 0 0 
175 1 1 -6.59964 -16.7846 -64.1817 0 0 0 
178 1 1 -5.81976 -19.5055 -61.2486 0 0 0 
176 2 1 -9.96348 -18.17 -62.426 0 0 0 
179 2 1 -3.19858 -22.3155 -61.0819 0 0 0 
171 3 1 -12.9109 -9.82021 -67.6239 0 0 0 
174 3 1 -13.71 -14.243 -66.0681 0 0 0 
170 2 1 -10.417 -11.948 -68.8011 0 0 0 
173 2 1 -10.4013 -13.6595 -64.9256 0 0 0 
172 1 1 -6.98363 -14.0977 -67.0781 0 0 0 
186 3 1 -5.53255 -15.6531 -49.8683 0 0 0 
181 1 1 -5.70544 -21.1743 -57.7577 0 0 0 
184 1 1 -5.6654 -22.0122 -54.0172 0 0 0 
185 2 1 -6.31539 -19.0124 -51.2569 0 0 0 
187 1 1 -4.93401 -23.4865 -50.408 0 0 0 
183 3 1 -4.29709 -27.4866 -56.621 0 0 0 
182 2 1 -6.91021 -24.9225 -56.6949 0 0 0 
180 3 1 -1.96074 -25.9592 -62.0348 0 0 0 
188 2 1 -2.63973 -26.6815 -49.3077 0 0 0 
190 1 1 -4.80721 -23.6209 -46.4796 0 0 0 
193 1 1 -5.55572 -21.9203 -43.1306 0 0 0 
191 2 1 -3.72447 -26.3568 -44.0461 0 0 0 
196 1 1 -5.8323 -21.3889 -39.3195 0 0 0 
192 3 1 -1.00543 -27.5071 -41.4485 0 0 0 
189 3 1 -2.51513 -29.0218 -51.8492 0 0 0 
195 3 1 -8.83628 -15.4998 -43.2894 0 0 0 
194 2 1 -6.4027 -17.9785 -42.4673 0 0 0 
198 3 1 -11.3901 -16.3722 -37.8503 0 0 0 
200 2 1 -7.02235 -18.242 -33.4572 0 0 0 
197 2 1 -8.53304 -18.5635 -38.4144 0 0 0 
202 1 1 -5.58378 -22.9543 -31.8221 0 0 0 
199 1 1 -5.95965 -21.6537 -35.4983 0 0 0 
203 2 1 -5.836 -26.9197 -30.8087 0 0 0 
204 3 1 -4.3324 -30.2998 -30.1599 0 0 0 
201 3 1 -8.71911 -16.3337 -31.0905 0 0 0 
205 1 1 -5.46441 -22.5869 -27.9682 0 0 0 
209 2 1 -10.163 -18.6387 -23.9771 0 0 0 
210 3 1 -13.3441 -17.469 -23.5575 0 0 0 
208 1 1 -7.26862 -21.3062 -24.7478 0 0 0 
211 1 1 -7.50182 -21.2032 -20.8003 0 0 0 
206 2 1 -3.21014 -23.7818 -24.703 0 0 0 
212 2 1 -4.23325 -21.3978 -18.2784 0 0 0 
207 3 1 -0.219746 -25.0648 -22.5665 0 0 0 
214 1 1 -8.9971 -21.2079 -17.1285 0 0 0 
216 3 1 -16.3966 -21.0985 -15.0333 0 0 0 
215 2 1 -12.6491 -21.7198 -15.4022 0 0 0 
221 2 1 -12.2258 -22.7283 -7.89037 0 0 0 
222 3 1 -15.6125 -22.7594 -6.03659 0 0 0 
213 3 1 -1.63224 -19.8459 -15.853 0 0 0 
217 1 1 -8.46171 -20.3633 -13.4555 0 0 0 
220 1 1 -9.13675 -20.6556 -9.6837 0 0 0 
218 2 1 -5.92166 -17.417 -12.4896 0 0 0 
219 3 1 -5.00503 -13.8226 -13.1099 0 0 0 
225 3 1 -13.1755 -23.0308 -0.414505 0 0 0 
224 2 1 -10.3345 -21.9867 -2.85043 0 0 0 
227 2 1 -5.71478 -20.7624 0.499624 0 0 0 
223 1 1 -8.702 -20.0913 -5.80066 0 0 0 
226 1 1 -7.23773 -18.4545 -2.60072 0 0 0 
229 1 1 -6.02248 -16.0563 0.147675 0 0 0 
232 1 1 -5.80745 -13.3366 2.8238 0 0 0 
234 3 1 -11.8753 -9.43311 1.88787 0 0 0 
233 2 1 -8.50165 -10.2986 2.57689 0 0 0 
228 3 1 -3.10813 -22.0771 3.01169 0 0 0 
231 3 1 0.958227 -17.9578 3.06644 0 0 0 
230 2 1 -2.4246 -16.7081 1.87033 0 0 0 
240 3 1 -11.7893 -3.76375 7.01839 0 0 0 
239 2 1 -8.8865 -5.95792 6.94012 0 0 0 
238 1 1 -5.16398 -7.51282 7.48491 0 0 0 
235 1 1 -4.77347 -10.9064 5.64326 0 0 0 
236 2 1 -2.35046 -11.8696 8.84394 0 0 0 
241 1 1 -4.83693 -4.19528 9.38029 0 0 0 
242 2 1 -1.69011 -4.30132 12.114 0 0 0 
237 3 1 -0.902305 -14.0679 11.2564 0 0 0 
243 3 1 -0.265673 -7.085 13.6585 0 0 0 
244 1 1 -4.59028 -0.616024 10.5012 0 0 0 
246 3 1 -6.99033 5.99374 8.2579 0 0 0 
249 3 1 -4.34939 9.0729 11.3317 0 0 0 
247 1 1 -3.09273 1.8392 13.1449 0 0 0 
245 2 1 -6.22554 3.04683 10.1998 0 0 0 
248 2 1 -3.18828 5.96017 12.5263 0 0 0 
250 1 1 -1.16627 3.08915 16.2521 0 0 0 
251 2 1 1.49144 1.06468 18.603 0 0 0 
254 2 1 -1.00464 9.40972 17.669 0 0 0 
255 3 1 -0.627067 12.5485 15.2301 0 0 0 
253 1 1 0.088563 5.69572 18.7988 0 0 0 
256 1 1 1.13616 7.49597 21.9672 0 0 0 
252 3 1 3.27405 0.219133 21.7276 0 0 0 
257 2 1 3.88697 5.40056 24.0588 0 0 0 
258 3 1 6.72657 3.49619 22.8374 0 0 0 
259 1 1 1.19633 9.72357 25.109 0 0 0 
260 2 1 -1.21565 12.3863 25.7427 0 0 0 
263 2 1 5.5834 9.08657 30.2007 0 0 0 
262 1 1 2.46228 11.1898 28.5755 0 0 0 
264 3 1 7.36545 6.11904 30.9362 0 0 0 
269 2 1 3.45045 12.0011 38.441 0 0 0 
261 3 1 -2.71653 15.6191 25.4324 0 0 0 
266 2 1 0.964715 16.5449 32.5675 0 0 0 
267 3 1 -1.16343 18.9927 34.0056 0 0 0 
265 1 1 2.94927 13.1002 31.9321 0 0 0 
268 1 1 3.8354 14.6555 35.4057 0 0 0 
270 3 1 4.15827 8.89951 40.5206 0 0 0 
273 3 1 2.21744 13.5746 44.0699 0 0 0 
275 2 1 5.19049 21.8754 43.8409 0 0 0 