ITEM: TIMESTEP
0
ITEM: NUMBER OF ATOMS
480
ITEM: BOX BOUNDS pp pp pp
-244.298 244.298
-244.298 244.298
-244.298 244.298
ITEM: ATOMS id type mol x y z ix iy iz 
33 3 1 -47.5836 -51.3855 -241.932 0 0 0 
36 3 1 -33.0478 -51.796 -241.6 0 0 0 
32 2 1 -44.1375 -50.6796 -243.175 0 0 0 
38 2 1 -42.9665 -49.2093 -236.138 0 0 0 
39 3 1 -46.4125 -49.9152 -234.896 0 0 0 
34 1 1 -40.1625 -49.886 -241.528 0 0 0 
35 2 1 -36.635 -50.8251 -242.425 0 0 0 
37 1 1 -39.5769 -49.1508 -238.009 0 0 0 
40 1 1 -38.9914 -48.4156 -234.491 0 0 0 
41 2 1 -35.4639 -49.3548 -235.388 0 0 0 
42 3 1 -31.8767 -50.3257 -234.563 0 0 0 
452 2 1 37.8368 52.2433 -239.194 0 0 1 
453 3 1 34.3907 51.5374 -237.951 0 0 1 
451 1 1 41.2263 52.3018 -241.065 0 0 1 
454 1 1 41.8118 53.0369 -237.547 0 0 1 
455 2 1 45.3393 52.0977 -238.444 0 0 1 
456 3 1 48.9265 51.1269 -237.619 0 0 1 
44 2 1 -41.7954 -47.7389 -229.101 0 0 0 
45 3 1 -45.2415 -48.4449 -227.859 0 0 0 
43 1 1 -38.4059 -47.6805 -230.972 0 0 0 
46 1 1 -37.8203 -46.9453 -227.454 0 0 0 
47 2 1 -34.2929 -47.8845 -228.352 0 0 0 
48 3 1 -30.7057 -48.8553 -227.526 0 0 0 
458 2 1 39.0078 53.7136 -232.157 0 0 1 
459 3 1 35.5618 53.0077 -230.915 0 0 1 
464 2 1 40.1789 55.1839 -225.12 0 0 1 
457 1 1 42.3974 53.7721 -234.028 0 0 1 
460 1 1 42.9829 54.5073 -230.51 0 0 1 
461 2 1 46.5104 53.5681 -231.408 0 0 1 
462 3 1 50.0976 52.5972 -230.582 0 0 1 
463 1 1 43.5684 55.2424 -226.991 0 0 1 
467 2 1 47.6814 55.0384 -224.371 0 0 1 
51 3 1 -44.0704 -46.9745 -220.822 0 0 0 
57 3 1 -42.8993 -45.5042 -213.785 0 0 0 
49 1 1 -37.2348 -46.2101 -223.936 0 0 0 
50 2 1 -40.6243 -46.2686 -222.064 0 0 0 
52 1 1 -36.6493 -45.475 -220.417 0 0 0 
53 2 1 -33.1218 -46.4141 -221.315 0 0 0 
55 1 1 -36.0637 -44.7398 -216.899 0 0 0 
56 2 1 -39.4533 -44.7983 -215.028 0 0 0 
59 2 1 -31.9507 -44.9438 -214.278 0 0 0 
54 3 1 -29.5346 -47.385 -220.49 0 0 0 
465 3 1 36.7328 54.478 -223.878 0 0 1 
471 3 1 37.9039 55.9483 -216.841 0 0 1 
466 1 1 44.154 55.9776 -223.473 0 0 1 
469 1 1 44.7395 56.7127 -219.955 0 0 1 
470 2 1 41.35 56.6543 -218.083 0 0 1 
472 1 1 45.325 57.4479 -216.436 0 0 1 
473 2 1 48.8525 56.5087 -217.334 0 0 1 
468 3 1 51.2686 54.0675 -223.546 0 0 1 
474 3 1 52.4397 55.5379 -216.509 0 0 1 
63 3 1 -41.7283 -44.0339 -206.748 0 0 0 
58 1 1 -35.4782 -44.0046 -213.38 0 0 0 
61 1 1 -34.8927 -43.2695 -209.862 0 0 0 
62 2 1 -38.2822 -43.328 -207.991 0 0 0 
64 1 1 -34.3072 -42.5343 -206.344 0 0 0 
65 2 1 -30.7797 -43.4735 -207.241 0 0 0 
60 3 1 -28.3635 -45.9147 -213.453 0 0 0 
66 3 1 -27.1925 -44.4444 -206.416 0 0 0 
477 3 1 39.075 57.4187 -209.804 0 0 1 
475 1 1 45.9105 58.1831 -212.918 0 0 1 
476 2 1 42.521 58.1246 -211.047 0 0 1 
478 1 1 46.4961 58.9182 -209.399 0 0 1 
479 2 1 50.0235 57.9791 -210.297 0 0 1 
480 3 1 53.6108 57.0082 -209.472 0 0 1 
67 1 1 -33.7216 -41.7991 -202.825 0 0 0 
68 2 1 -37.1111 -41.8576 -200.954 0 0 0 
69 3 1 -40.5572 -42.5636 -199.712 0 0 0 
70 1 1 -33.1361 -41.064 -199.307 0 0 0 
71 2 1 -29.6086 -42.0032 -200.204 0 0 0 
72 3 1 -26.0214 -42.974 -199.379 0 0 0 
73 1 1 -32.5506 -40.3288 -195.788 0 0 0 
74 2 1 -35.9401 -40.3873 -193.917 0 0 0 
75 3 1 -39.3862 -41.0932 -192.675 0 0 0 
78 3 1 -24.8503 -41.5037 -192.343 0 0 0 
76 1 1 -31.965 -39.5937 -192.27 0 0 0 
79 1 1 -31.3795 -38.8585 -188.752 0 0 0 
80 2 1 -34.769 -38.917 -186.88 0 0 0 
81 3 1 -38.2151 -39.6229 -185.638 0 0 0 
82 1 1 -30.794 -38.1233 -185.233 0 0 0 
77 2 1 -28.4376 -40.5329 -193.168 0 0 0 
83 2 1 -27.2665 -39.0625 -186.131 0 0 0 
84 3 1 -23.6793 -40.0334 -185.306 0 0 0 
86 2 1 -33.598 -37.4466 -179.844 0 0 0 
87 3 1 -37.044 -38.1526 -178.601 0 0 0 
85 1 1 -30.2084 -37.3882 -181.715 0 0 0 
88 1 1 -29.6229 -36.653 -178.196 0 0 0 
89 2 1 -26.0954 -37.5922 -179.094 0 0 0 
90 3 1 -22.5082 -38.563 -178.269 0 0 0 
91 1 1 -29.0374 -35.9178 -174.678 0 0 0 
92 2 1 -32.4269 -35.9763 -172.807 0 0 0 
93 3 1 -35.873 -36.6823 -171.564 0 0 0 
98 2 1 -31.2558 -34.506 -165.77 0 0 0 
99 3 1 -34.7019 -35.2119 -164.528 0 0 0 
94 1 1 -28.4519 -35.1827 -171.16 0 0 0 
95 2 1 -24.9244 -36.1219 -172.057 0 0 0 
96 3 1 -21.3372 -37.0927 -171.232 0 0 0 
97 1 1 -27.8663 -34.4475 -167.641 0 0 0 
100 1 1 -27.2808 -33.7124 -164.123 0 0 0 
101 2 1 -23.7533 -34.6515 -165.02 0 0 0 
102 3 1 -20.1661 -35.6224 -164.195 0 0 0 
105 3 1 -33.5309 -33.7416 -157.491 0 0 0 
103 1 1 -26.6953 -32.9772 -160.604 0 0 0 
104 2 1 -30.0848 -33.0357 -158.733 0 0 0 
106 1 1 -26.1097 -32.242 -157.086 0 0 0 
107 2 1 -22.5823 -33.1812 -157.984 0 0 0 
109 1 1 -25.5242 -31.5069 -153.568 0 0 0 
108 3 1 -18.995 -34.1521 -157.159 0 0 0 
111 3 1 -32.3598 -32.2713 -150.454 0 0 0 
117 3 1 -31.1887 -30.8009 -143.417 0 0 0 
110 2 1 -28.9137 -31.5653 -151.696 0 0 0 
112 1 1 -24.9387 -30.7717 -150.049 0 0 0 
113 2 1 -21.4112 -31.7109 -150.947 0 0 0 
114 3 1 -17.824 -32.6817 -150.122 0 0 0 
120 3 1 -16.6529 -31.2114 -143.085 0 0 0 
115 1 1 -24.3531 -30.0365 -146.531 0 0 0 
116 2 1 -27.7427 -30.095 -144.66 0 0 0 
118 1 1 -23.7676 -29.3014 -143.012 0 0 0 
119 2 1 -20.2401 -30.2406 -143.91 0 0 0 
121 1 1 -23.1821 -28.5662 -139.494 0 0 0 
122 2 1 -26.5716 -28.6247 -137.623 0 0 0 
123 3 1 -30.0177 -29.3306 -136.38 0 0 0 
124 1 1 -22.5965 -27.831 -135.976 0 0 0 
127 1 1 -22.011 -27.0959 -132.457 0 0 0 
125 2 1 -19.0691 -28.7702 -136.873 0 0 0 
126 3 1 -15.4819 -29.7411 -136.048 0 0 0 
128 2 1 -25.4005 -27.1544 -130.586 0 0 0 
129 3 1 -28.8466 -27.8603 -129.344 0 0 0 
130 1 1 -21.4255 -26.3607 -128.939 0 0 0 
133 1 1 -20.84 -25.6256 -125.42 0 0 0 
134 2 1 -24.2295 -25.684 -123.549 0 0 0 
135 3 1 -27.6755 -26.39 -122.307 0 0 0 
131 2 1 -17.898 -27.2999 -129.837 0 0 0 
132 3 1 -14.3108 -28.2708 -129.011 0 0 0 
137 2 1 -16.7269 -25.8296 -122.8 0 0 0 
140 2 1 -23.0584 -24.2137 -116.512 0 0 0 
141 3 1 -26.5045 -24.9196 -115.27 0 0 0 
136 1 1 -20.2544 -24.8904 -121.902 0 0 0 
138 3 1 -13.1397 -26.8004 -121.975 0 0 0 
139 1 1 -19.6689 -24.1552 -118.384 0 0 0 
142 1 1 -19.0834 -23.4201 -114.865 0 0 0 
143 2 1 -15.5559 -24.3592 -115.763 0 0 0 
144 3 1 -11.9687 -25.3301 -114.938 0 0 0 
146 2 1 -21.8874 -22.7434 -109.475 0 0 0 
147 3 1 -25.3334 -23.4493 -108.233 0 0 0 
152 2 1 -20.7163 -21.2731 -102.439 0 0 0 
145 1 1 -18.4978 -22.6849 -111.347 0 0 0 
148 1 1 -17.9123 -21.9497 -107.828 0 0 0 
149 2 1 -14.3848 -22.8889 -108.726 0 0 0 
150 3 1 -10.7976 -23.8598 -107.901 0 0 0 
151 1 1 -17.3268 -21.2146 -104.31 0 0 0 
153 3 1 -24.1623 -21.979 -101.196 0 0 0 
159 3 1 -22.9913 -20.5086 -94.1596 0 0 0 
154 1 1 -16.7412 -20.4794 -100.792 0 0 0 
155 2 1 -13.2138 -21.4186 -101.689 0 0 0 
156 3 1 -9.62656 -22.3895 -100.864 0 0 0 
162 3 1 -8.4555 -20.9191 -93.8274 0 0 0 
157 1 1 -16.1557 -19.7443 -97.2732 0 0 0 
158 2 1 -19.5452 -19.8027 -95.4019 0 0 0 
160 1 1 -15.5702 -19.0091 -93.7548 0 0 0 
161 2 1 -12.0427 -19.9483 -94.6525 0 0 0 
165 3 1 -21.8202 -19.0383 -87.1228 0 0 0 
163 1 1 -14.9846 -18.2739 -90.2364 0 0 0 
164 2 1 -18.3742 -18.3324 -88.3651 0 0 0 
166 1 1 -14.3991 -17.5388 -86.718 0 0 0 
167 2 1 -10.8717 -18.4779 -87.6157 0 0 0 
169 1 1 -13.8136 -16.8036 -83.1996 0 0 0 
168 3 1 -7.28443 -19.4488 -86.7906 0 0 0 
171 3 1 -20.6492 -17.568 -80.0861 0 0 0 
170 2 1 -17.2031 -16.8621 -81.3283 0 0 0 
172 1 1 -13.228 -16.0684 -79.6812 0 0 0 
175 1 1 -12.6425 -15.3333 -76.1628 0 0 0 
176 2 1 -16.032 -15.3918 -74.2915 0 0 0 
177 3 1 -19.4781 -16.0977 -73.0493 0 0 0 
178 1 1 -12.057 -14.5981 -72.6444 0 0 0 
173 2 1 -9.70059 -17.0076 -80.5789 0 0 0 
174 3 1 -6.11337 -17.9785 -79.7538 0 0 0 
179 2 1 -8.52953 -15.5373 -73.5421 0 0 0 
180 3 1 -4.94231 -16.5082 -72.7169 0 0 0 
181 1 1 -11.4715 -13.8629 -69.126 0 0 0 
182 2 1 -14.861 -13.9214 -67.2547 0 0 0 
183 3 1 -18.3071 -14.6273 -66.0125 0 0 0 
184 1 1 -10.8859 -13.1278 -65.6076 0 0 0 
187 1 1 -10.3004 -12.3926 -62.0892 0 0 0 
185 2 1 -7.35847 -14.067 -66.5053 0 0 0 
186 3 1 -3.77125 -15.0378 -65.6801 0 0 0 
188 2 1 -13.6899 -12.4511 -60.2179 0 0 0 
189 3 1 -17.136 -13.157 -58.9757 0 0 0 
194 2 1 -12.5189 -10.9808 -53.1811 0 0 0 
195 3 1 -15.9649 -11.6867 -51.9389 0 0 0 
190 1 1 -9.71487 -11.6575 -58.5708 0 0 0 
191 2 1 -6.18741 -12.5966 -59.4685 0 0 0 
192 3 1 -2.60019 -13.5675 -58.6433 0 0 0 
193 1 1 -9.12934 -10.9223 -55.0524 0 0 0 
196 1 1 -8.54381 -10.1871 -51.534 0 0 0 
197 2 1 -5.01635 -11.1263 -52.4317 0 0 0 
198 3 1 -1.42913 -12.0972 -51.6065 0 0 0 
201 3 1 -14.7939 -10.2164 -44.9021 0 0 0 
204 3 1 -0.258066 -10.6268 -44.5697 0 0 0 
200 2 1 -11.3478 -9.51044 -46.1443 0 0 0 
199 1 1 -7.95828 -9.45196 -48.0156 0 0 0 
202 1 1 -7.37275 -8.7168 -44.4972 0 0 0 
203 2 1 -3.84528 -9.65598 -45.3949 0 0 0 
205 1 1 -6.78722 -7.98163 -40.9788 0 0 0 
207 3 1 -13.6228 -8.74604 -37.8652 0 0 0 
213 3 1 -12.4517 -7.27571 -30.8284 0 0 0 
206 2 1 -10.1767 -8.04012 -39.1075 0 0 0 
208 1 1 -6.20169 -7.24647 -37.4604 0 0 0 
209 2 1 -2.67422 -8.18566 -38.3581 0 0 0 
211 1 1 -5.61616 -6.51131 -33.942 0 0 0 
212 2 1 -9.00567 -6.56979 -32.0707 0 0 0 
215 2 1 -1.50316 -6.71533 -31.3213 0 0 0 
210 3 1 0.912995 -9.15652 -37.5329 0 0 0 
219 3 1 -11.2807 -5.80539 -23.7916 0 0 0 
214 1 1 -5.03063 -5.77614 -30.4236 0 0 0 
217 1 1 -4.4451 -5.04098 -26.9052 0 0 0 
218 2 1 -7.83461 -5.09946 -25.0339 0 0 0 
220 1 1 -3.85956 -4.30582 -23.3868 0 0 0 
221 2 1 -0.332099 -5.245 -24.2845 0 0 0 
216 3 1 2.08406 -7.68619 -30.4962 0 0 0 
222 3 1 3.25512 -6.21586 -23.4593 0 0 0 
223 1 1 -3.27403 -3.57065 -19.8684 0 0 0 
224 2 1 -6.66355 -3.62914 -17.9971 0 0 0 
225 3 1 -10.1096 -4.33506 -16.7548 0 0 0 
226 1 1 -2.6885 -2.83549 -16.35 0 0 0 
229 1 1 -2.10297 -2.10033 -12.8316 0 0 0 
230 2 1 -5.49249 -2.15881 -10.9603 0 0 0 
227 2 1 0.838961 -3.77467 -17.2477 0 0 0 
228 3 1 4.42618 -4.74554 -16.4225 0 0 0 
233 2 1 2.01002 -2.30435 -10.2109 0 0 0 
231 3 1 -8.93856 -2.86473 -9.71804 0 0 0 
232 1 1 -1.51744 -1.36516 -9.31319 0 0 0 
235 1 1 -0.931911 -0.629998 -5.79479 0 0 0 
236 2 1 -4.32143 -0.688482 -3.92353 0 0 0 
237 3 1 -7.7675 -1.3944 -2.68124 0 0 0 
234 3 1 5.59724 -3.27521 -9.38575 0 0 0 
239 2 1 3.18108 -0.83402 -3.17409 0 0 0 
240 3 1 6.7683 -1.80488 -2.34895 0 0 0 
238 1 1 -0.34638 0.105164 -2.27638 0 0 0 
246 3 1 7.93936 -0.334554 4.68786 0 0 0 
242 2 1 -3.15037 0.781844 3.11327 0 0 0 
243 3 1 -6.59644 0.075921 4.35556 0 0 0 
248 2 1 -1.97931 2.25217 10.1501 0 0 0 
241 1 1 0.23915 0.840328 1.24202 0 0 0 
244 1 1 0.82468 1.57549 4.76042 0 0 0 
245 2 1 4.35215 0.636306 3.86271 0 0 0 
247 1 1 1.41021 2.31066 8.27882 0 0 0 
249 3 1 -5.42537 1.54625 11.3924 0 0 0 
254 2 1 -0.808244 3.7225 17.1869 0 0 0 
255 3 1 -4.25431 3.01658 18.4292 0 0 0 
250 1 1 1.99574 3.04582 11.7972 0 0 0 
251 2 1 5.52321 2.10663 10.8995 0 0 0 
252 3 1 9.11042 1.13577 11.7247 0 0 0 
253 1 1 2.58127 3.78098 15.3156 0 0 0 
256 1 1 3.1668 4.51615 18.834 0 0 0 
257 2 1 6.69427 3.57696 17.9363 0 0 0 
258 3 1 10.2815 2.6061 18.7614 0 0 0 
261 3 1 -3.08325 4.4869 25.466 0 0 0 
259 1 1 3.75233 5.25131 22.3524 0 0 0 
260 2 1 0.362816 5.19283 24.2237 0 0 0 
262 1 1 4.33786 5.98647 25.8708 0 0 0 
263 2 1 7.86533 5.04729 24.9731 0 0 0 
265 1 1 4.9234 6.72164 29.3892 0 0 0 
264 3 1 11.4525 4.07643 25.7983 0 0 0 
267 3 1 -1.91219 5.95723 32.5028 0 0 0 
273 3 1 -0.74113 7.42756 39.5396 0 0 0 
266 2 1 1.53388 6.66315 31.2605 0 0 0 
268 1 1 5.50893 7.4568 32.9076 0 0 0 
269 2 1 9.03639 6.51761 32.0099 0 0 0 
271 1 1 6.09446 8.19196 36.426 0 0 0 
272 2 1 2.70494 8.13348 38.2973 0 0 0 
274 1 1 6.67999 8.92713 39.9444 0 0 0 
270 3 1 12.6236 5.54675 32.8351 0 0 0 
275 2 1 10.2074 7.98794 39.0467 0 0 0 
276 3 1 13.7947 7.01708 39.8719 0 0 0 
277 1 1 7.26552 9.66229 43.4628 0 0 0 
278 2 1 3.876 9.60381 45.3341 0 0 0 
279 3 1 0.429931 8.89788 46.5764 0 0 0 
281 2 1 11.3785 9.45827 46.0835 0 0 0 
282 3 1 14.9657 8.48741 46.9087 0 0 0 
280 1 1 7.85105 10.3974 46.9812 0 0 0 
283 1 1 8.43658 11.1326 50.4996 0 0 0 
288 3 1 16.1368 9.95773 53.9455 0 0 0 
284 2 1 5.04706 11.0741 52.3709 0 0 0 
285 3 1 1.60099 10.3682 53.6132 0 0 0 
286 1 1 9.02211 11.8678 54.018 0 0 0 
289 1 1 9.60764 12.6029 57.5364 0 0 0 
290 2 1 6.21812 12.5445 59.4077 0 0 0 
291 3 1 2.77205 11.8385 60.65 0 0 0 
287 2 1 12.5496 10.9286 53.1203 0 0 0 
292 1 1 10.1932 13.3381 61.0548 0 0 0 
293 2 1 13.7206 12.3989 60.1571 0 0 0 
294 3 1 17.3078 11.4281 60.9823 0 0 0 
296 2 1 7.38919 14.0148 66.4445 0 0 0 
297 3 1 3.94312 13.3089 67.6868 0 0 0 
295 1 1 10.7787 14.0733 64.5732 0 0 0 
298 1 1 11.3642 14.8084 68.0916 0 0 0 
299 2 1 14.8917 13.8692 67.1939 0 0 0 
300 3 1 18.4789 12.8984 68.0191 0 0 0 
302 2 1 8.56025 15.4851 73.4813 0 0 0 
303 3 1 5.11418 14.7792 74.7236 0 0 0 
308 2 1 9.73131 16.9554 80.5181 0 0 0 
301 1 1 11.9498 15.5436 71.61 0 0 0 
304 1 1 12.5353 16.2788 75.1284 0 0 0 
305 2 1 16.0628 15.3396 74.2307 0 0 0 
306 3 1 19.65 14.3687 75.0559 0 0 0 
307 1 1 13.1208 17.0139 78.6468 0 0 0 
311 2 1 17.2338 16.8099 81.2675 0 0 0 
309 3 1 6.28524 16.2495 81.7604 0 0 0 
315 3 1 7.4563 17.7198 88.7972 0 0 0 
310 1 1 13.7064 17.7491 82.1652 0 0 0 
313 1 1 14.2919 18.4842 85.6836 0 0 0 
314 2 1 10.9024 18.4258 87.5549 0 0 0 
316 1 1 14.8774 19.2194 89.202 0 0 0 
317 2 1 18.4049 18.2802 88.3043 0 0 0 
312 3 1 20.821 15.839 82.0927 0 0 0 
318 3 1 21.9921 17.3094 89.1295 0 0 0 
321 3 1 8.62736 19.1902 95.834 0 0 0 
319 1 1 15.4629 19.9546 92.7204 0 0 0 
320 2 1 12.0734 19.8961 94.5917 0 0 0 
323 2 1 19.5759 19.7506 95.3411 0 0 0 
324 3 1 23.1632 18.7797 96.1663 0 0 0 
322 1 1 16.0485 20.6897 96.2388 0 0 0 
325 1 1 16.634 21.4249 99.7572 0 0 0 
326 2 1 13.2445 21.3664 101.628 0 0 0 
330 3 1 24.3342 20.25 103.203 0 0 0 
327 3 1 9.79842 20.6605 102.871 0 0 0 
328 1 1 17.2195 22.1601 103.276 0 0 0 
331 1 1 17.8051 22.8952 106.794 0 0 0 
332 2 1 14.4155 22.8367 108.665 0 0 0 
333 3 1 10.9695 22.1308 109.907 0 0 0 
334 1 1 18.3906 23.6304 110.312 0 0 0 
329 2 1 20.747 21.2209 102.378 0 0 0 
335 2 1 21.9181 22.6912 109.415 0 0 0 
336 3 1 25.5053 21.7203 110.24 0 0 0 
337 1 1 18.9761 24.3656 113.831 0 0 0 
338 2 1 15.5866 24.3071 115.702 0 0 0 
339 3 1 12.1405 23.6012 116.944 0 0 0 
340 1 1 19.5617 25.1007 117.349 0 0 0 
343 1 1 20.1472 25.8359 120.868 0 0 0 
341 2 1 23.0891 24.1615 116.451 0 0 0 
342 3 1 26.6763 23.1907 117.277 0 0 0 
344 2 1 16.7577 25.7774 122.739 0 0 0 
345 3 1 13.3116 25.0715 123.981 0 0 0 
350 2 1 17.9287 27.2477 129.776 0 0 0 
351 3 1 14.4827 26.5418 131.018 0 0 0 
346 1 1 20.7327 26.571 124.386 0 0 0 
347 2 1 24.2602 25.6319 123.488 0 0 0 
348 3 1 27.8474 24.661 124.313 0 0 0 
349 1 1 21.3182 27.3062 127.904 0 0 0 
352 1 1 21.9038 28.0414 131.423 0 0 0 
353 2 1 25.4312 27.1022 130.525 0 0 0 
354 3 1 29.0185 26.1313 131.35 0 0 0 
356 2 1 19.0998 28.7181 136.812 0 0 0 
357 3 1 15.6537 28.0121 138.055 0 0 0 
355 1 1 22.4893 28.7765 134.941 0 0 0 
358 1 1 23.0748 29.5117 138.46 0 0 0 
359 2 1 26.6023 28.5725 137.562 0 0 0 
360 3 1 30.1895 27.6017 138.387 0 0 0 
361 1 1 23.6604 30.2469 141.978 0 0 0 
362 2 1 20.2709 30.1884 143.849 0 0 0 
363 3 1 16.8248 29.4825 145.091 0 0 0 
365 2 1 27.7734 30.0428 144.599 0 0 0 
366 3 1 31.3606 29.072 145.424 0 0 0 
369 3 1 17.9959 30.9528 152.128 0 0 0 
364 1 1 24.2459 30.982 145.496 0 0 0 
367 1 1 24.8314 31.7172 149.015 0 0 0 
368 2 1 21.4419 31.6587 150.886 0 0 0 
370 1 1 25.417 32.4524 152.533 0 0 0 
371 2 1 28.9444 31.5132 151.636 0 0 0 
372 3 1 32.5316 30.5423 152.461 0 0 0 
375 3 1 19.1669 32.4231 159.165 0 0 0 
373 1 1 26.0025 33.1875 156.052 0 0 0 
374 2 1 22.613 33.129 157.923 0 0 0 
376 1 1 26.588 33.9227 159.57 0 0 0 
377 2 1 30.1155 32.9835 158.672 0 0 0 
378 3 1 33.7027 32.0126 159.497 0 0 0 
381 3 1 20.338 33.8934 166.202 0 0 0 
379 1 1 27.1736 34.6579 163.088 0 0 0 
380 2 1 23.784 34.5994 164.96 0 0 0 
382 1 1 27.7591 35.393 166.607 0 0 0 
385 1 1 28.3446 36.1282 170.125 0 0 0 
386 2 1 24.9551 36.0697 171.996 0 0 0 
383 2 1 31.2865 34.4538 165.709 0 0 0 
384 3 1 34.8738 33.483 166.534 0 0 0 
389 2 1 32.4576 35.9241 172.746 0 0 0 
387 3 1 21.509 35.3638 173.239 0 0 0 
388 1 1 28.9302 36.8633 173.644 0 0 0 
391 1 1 29.5157 37.5985 177.162 0 0 0 
392 2 1 26.1262 37.54 179.033 0 0 0 
393 3 1 22.6801 36.8341 180.275 0 0 0 
394 1 1 30.1012 38.3337 180.68 0 0 0 
390 3 1 36.0448 34.9533 173.571 0 0 0 
395 2 1 33.6287 37.3945 179.783 0 0 0 
396 3 1 37.2159 36.4236 180.608 0 0 0 
398 2 1 27.2972 39.0103 186.07 0 0 0 
399 3 1 23.8512 38.3044 187.312 0 0 0 
404 2 1 28.4683 40.4807 193.107 0 0 0 
397 1 1 30.6867 39.0688 184.199 0 0 0 
400 1 1 31.2723 39.804 187.717 0 0 0 
401 2 1 34.7997 38.8648 186.82 0 0 0 
402 3 1 38.387 37.8939 187.645 0 0 0 
403 1 1 31.8578 40.5391 191.236 0 0 0 
405 3 1 25.0222 39.7747 194.349 0 0 0 
407 2 1 35.9708 40.3351 193.856 0 0 0 
408 3 1 39.558 39.3643 194.681 0 0 0 
410 2 1 29.6394 41.951 200.144 0 0 0 
411 3 1 26.1933 41.2451 201.386 0 0 0 
406 1 1 32.4433 41.2743 194.754 0 0 0 
409 1 1 33.0289 42.0095 198.272 0 0 0 
412 1 1 33.6144 42.7446 201.791 0 0 0 
413 2 1 37.1419 41.8055 200.893 0 0 0 
414 3 1 40.7291 40.8346 201.718 0 0 0 
3 3 1 -53.4389 -58.7372 211.479 0 0 -1 
1 1 1 -46.6033 -57.9727 208.365 0 0 -1 
2 2 1 -49.9928 -58.0312 210.236 0 0 -1 
4 1 1 -46.0178 -57.2376 211.883 0 0 -1 
5 2 1 -42.4903 -58.1768 210.986 0 0 -1 
6 3 1 -38.9031 -59.1476 211.811 0 0 -1 
417 3 1 27.3643 42.7154 208.423 0 0 0 
415 1 1 34.1999 43.4798 205.309 0 0 0 
416 2 1 30.8104 43.4213 207.18 0 0 0 
418 1 1 34.7855 44.215 208.828 0 0 0 
419 2 1 38.3129 43.2758 207.93 0 0 0 
421 1 1 35.371 44.9501 212.346 0 0 0 
420 3 1 41.9001 42.3049 208.755 0 0 0 
9 3 1 -52.2678 -57.2668 218.515 0 0 -1 
7 1 1 -45.4322 -56.5024 215.402 0 0 -1 
8 2 1 -48.8218 -56.5609 217.273 0 0 -1 
10 1 1 -44.8467 -55.7673 218.92 0 0 -1 
11 2 1 -41.3192 -56.7064 218.023 0 0 -1 
13 1 1 -44.2612 -55.0321 222.439 0 0 -1 
12 3 1 -37.732 -57.6773 218.848 0 0 -1 
423 3 1 28.5354 44.1857 215.46 0 0 0 
429 3 1 29.7065 45.6561 222.496 0 0 0 
422 2 1 31.9815 44.8916 214.217 0 0 0 
424 1 1 35.9565 45.6853 215.864 0 0 0 
425 2 1 39.484 44.7461 214.967 0 0 0 
427 1 1 36.5421 46.4205 219.383 0 0 0 
428 2 1 33.1525 46.362 221.254 0 0 0 
430 1 1 37.1276 47.1556 222.901 0 0 0 
431 2 1 40.6551 46.2164 222.004 0 0 0 
426 3 1 43.0712 43.7752 215.792 0 0 0 
432 3 1 44.2423 45.2456 222.829 0 0 0 
15 3 1 -51.0968 -55.7965 225.552 0 0 -1 
14 2 1 -47.6507 -55.0906 224.31 0 0 -1 
16 1 1 -43.6756 -54.2969 225.957 0 0 -1 
19 1 1 -43.0901 -53.5618 229.475 0 0 -1 
20 2 1 -46.4796 -53.6202 231.347 0 0 -1 
21 3 1 -49.9257 -54.3262 232.589 0 0 -1 
22 1 1 -42.5046 -52.8266 232.994 0 0 -1 
17 2 1 -40.1482 -55.2361 225.059 0 0 -1 
18 3 1 -36.561 -56.207 225.885 0 0 -1 
23 2 1 -38.9771 -53.7658 232.096 0 0 -1 
24 3 1 -35.3899 -54.7366 232.921 0 0 -1 
433 1 1 37.7131 47.8908 226.42 0 0 0 
434 2 1 34.3236 47.8323 228.291 0 0 0 
435 3 1 30.8775 47.1264 229.533 0 0 0 
436 1 1 38.2986 48.626 229.938 0 0 0 
439 1 1 38.8842 49.3611 233.456 0 0 0 
437 2 1 41.8261 47.6868 229.04 0 0 0 
438 3 1 45.4133 46.7159 229.865 0 0 0 
25 1 1 -41.9191 -52.0914 236.512 0 0 -1 
26 2 1 -45.3086 -52.1499 238.384 0 0 -1 
27 3 1 -48.7546 -52.8558 239.626 0 0 -1 
28 1 1 -41.3335 -51.3563 240.031 0 0 -1 
29 2 1 -37.8061 -52.2955 239.133 0 0 -1 
30 3 1 -34.2188 -53.2663 239.958 0 0 -1 
31 1 1 -40.748 -50.6211 243.549 0 0 -1 
440 2 1 35.4947 49.3026 235.328 0 0 0 
441 3 1 32.0486 48.5967 236.57 0 0 0 
442 1 1 39.4697 50.0963 236.975 0 0 0 
445 1 1 40.0552 50.8314 240.493 0 0 0 
446 2 1 36.6657 50.773 242.364 0 0 0 
447 3 1 33.2197 50.067 243.607 0 0 0 
443 2 1 42.9972 49.1571 236.077 0 0 0 
444 3 1 46.5844 48.1862 236.902 0 0 0 
449 2 1 44.1682 50.6274 243.114 0 0 0 
450 3 1 47.7555 49.6566 243.939 0 0 0 
448 1 1 40.6408 51.5666 244.012 0 0 0 
ITEM: TIMESTEP
100000
ITEM: NUMBER OF ATOMS
480
ITEM: BOX BOUNDS pp pp pp
-244.298 244.298
-244.298 244.298
-244.298 244.298
ITEM: ATOMS id type mol x y z ix iy iz 
1 1 1 -27.1788 -99.6011 -181.774 0 0 0 
2 2 1 -23.5607 -98.8679 -179.835 0 0 0 
3 3 1 -20.0259 -98.8623 -179.721 0 0 0 
48 3 1 -22.0786 -43.4189 -174.054 0 0 0 
45 3 1 -23.276 -49.1715 -182.034 0 0 0 
54 3 1 -21.3661 -37.7962 -176.39 0 0 0 
4 1 1 -27.6936 -96.0503 -180.545 0 0 0 
9 3 1 -23.5195 -88.4637 -174.407 0 0 0 
8 2 1 -26.3265 -90.3463 -176.226 0 0 0 
5 2 1 -29.914 -93.3994 -182.67 0 0 0 
6 3 1 -32.3015 -90.8135 -182.407 0 0 0 
7 1 1 -27.9109 -92.6114 -178.84 0 0 0 
13 1 1 -32.4872 -86.2902 -178.803 0 0 0 
10 1 1 -29.8279 -89.2849 -178.349 0 0 0 
12 3 1 -25.8006 -83.9663 -175.309 0 0 0 
11 2 1 -28.1181 -86.375 -176.254 0 0 0 
15 3 1 -39.5795 -88.6076 -179.193 0 0 0 
14 2 1 -36.5394 -86.3176 -179.462 0 0 0 
16 1 1 -33.4618 -82.6926 -178.323 0 0 0 
22 1 1 -34.5546 -75.1519 -177.683 0 0 0 
19 1 1 -34.665 -78.994 -178.576 0 0 0 
20 2 1 -37.8418 -77.1997 -180.422 0 0 0 
21 3 1 -38.3926 -73.8909 -181.633 0 0 0 
28 1 1 -34.0507 -67.7307 -176.624 0 0 0 
31 1 1 -32.3816 -64.3445 -176.746 0 0 0 
25 1 1 -35.3719 -71.4898 -176.907 0 0 0 
24 3 1 -28.8001 -73.7778 -173.222 0 0 0 
23 2 1 -31.0876 -73.5924 -176.086 0 0 0 
32 2 1 -29.9235 -63.2388 -179.81 0 0 0 
33 3 1 -30.4122 -60.4706 -181.912 0 0 0 
35 2 1 -30.1776 -58.8411 -172.478 0 0 0 
37 1 1 -31.0678 -56.9837 -177.183 0 0 0 
34 1 1 -31.2965 -60.5352 -175.971 0 0 0 
36 3 1 -29.2385 -59.1156 -168.83 0 0 0 
40 1 1 -30.5689 -53.0744 -177.468 0 0 0 
38 2 1 -31.602 -55.7447 -181.095 0 0 0 
39 3 1 -31.4312 -55.403 -184.664 0 0 0 
41 2 1 -33.4549 -50.5275 -176.361 0 0 0 
42 3 1 -35.3106 -49.2304 -173.144 0 0 0 
46 1 1 -28.5281 -45.9401 -177.292 0 0 0 
49 1 1 -28.9767 -42.0263 -176.906 0 0 0 
47 2 1 -24.5791 -44.7615 -176.564 0 0 0 
43 1 1 -29.0542 -49.7027 -177.784 0 0 0 
44 2 1 -26.1237 -48.3299 -180.125 0 0 0 
56 2 1 -30.3025 -32.6485 -178.572 0 0 0 
50 2 1 -32.1254 -39.9287 -178.184 0 0 0 
51 3 1 -35.4576 -38.1315 -177.909 0 0 0 
57 3 1 -31.8744 -32.1522 -181.948 0 0 0 
52 1 1 -28.3752 -38.2182 -176.047 0 0 0 
53 2 1 -24.7907 -37.232 -175.361 0 0 0 
55 1 1 -28.6252 -34.3423 -175.962 0 0 0 
61 1 1 -28.6416 -26.7897 -174.337 0 0 0 
64 1 1 -28.1596 -22.8656 -174.213 0 0 0 
60 3 1 -30.1604 -30.7047 -167.483 0 0 0 
59 2 1 -29.2237 -29.8401 -170.809 0 0 0 
58 1 1 -28.9256 -30.638 -174.777 0 0 0 
65 2 1 -24.5575 -20.9466 -173.789 0 0 0 
67 1 1 -28.7463 -19.1158 -174.213 0 0 0 
68 2 1 -30.4545 -16.8662 -177.132 0 0 0 
69 3 1 -33.1258 -15.2218 -179.359 0 0 0 
66 3 1 -21.9535 -19.2178 -175.795 0 0 0 
18 3 1 -31.2767 -81.0872 -171.595 0 0 0 
17 2 1 -31.999 -81.2962 -175.151 0 0 0 
27 3 1 -41.1538 -67.4998 -176.369 0 0 0 
26 2 1 -38.7039 -70.2958 -176.316 0 0 0 
29 2 1 -34.8547 -66.0146 -173.415 0 0 0 
30 3 1 -37.4788 -64.298 -171.987 0 0 0 
62 2 1 -26.7972 -25.7071 -170.794 0 0 0 
63 3 1 -27.6265 -25.4175 -167.083 0 0 0 
72 3 1 -33.3867 -10.0211 -174.351 0 0 0 
71 2 1 -31.679 -13.029 -174.339 0 0 0 
70 1 1 -29.1954 -15.699 -172.421 0 0 0 
73 1 1 -29.2341 -12.4186 -170.343 0 0 0 
76 1 1 -30.0935 -9.64653 -167.862 0 0 0 
74 2 1 -28.4427 -9.20832 -171.798 0 0 0 
77 2 1 -28.6856 -6.09989 -168.669 0 0 0 
78 3 1 -25.9521 -3.35971 -168.598 0 0 0 
75 3 1 -25.7037 -6.69483 -172.587 0 0 0 
79 1 1 -31.2213 -7.11988 -165.102 0 0 0 
80 2 1 -33.9699 -4.21622 -165.068 0 0 0 
81 3 1 -37.352 -3.609 -164.933 0 0 0 
87 3 1 -25.6574 -9.46862 -154.877 0 0 0 
86 2 1 -27.2685 -6.52551 -156.226 0 0 0 
82 1 1 -31.5086 -5.39406 -161.648 0 0 0 
83 2 1 -34.5853 -3.13341 -159.982 0 0 0 
85 1 1 -30.2842 -4.52135 -158.091 0 0 0 
88 1 1 -30.0656 -2.55597 -154.749 0 0 0 
89 2 1 -32.0705 0.633277 -153.391 0 0 0 
84 3 1 -37.2454 -0.60393 -160.98 0 0 0 
90 3 1 -35.7717 1.3934 -153.767 0 0 0 
92 2 1 -27.3678 -5.46094 -149.379 0 0 0 
91 1 1 -28.3481 -2.09658 -151.276 0 0 0 
94 1 1 -25.6571 -1.24772 -148.473 0 0 0 
97 1 1 -22.9238 -1.85045 -145.722 0 0 0 
93 3 1 -26.2805 -9.02062 -149.164 0 0 0 
95 2 1 -24.8456 2.73729 -148.048 0 0 0 
96 3 1 -22.5563 4.6329 -149.92 0 0 0 
117 3 1 -6.43687 -14.8682 -133.248 0 0 0 
102 3 1 -16.1482 -9.34686 -146.016 0 0 0 
101 2 1 -17.9753 -6.47712 -144.107 0 0 0 
100 1 1 -20.4954 -3.55018 -143.162 0 0 0 
104 2 1 -19.7472 -1.70845 -136.623 0 0 0 
103 1 1 -18.6137 -4.16613 -139.751 0 0 0 
106 1 1 -17.0729 -5.81427 -136.462 0 0 0 
98 2 1 -20.8463 1.47573 -144.52 0 0 0 
99 3 1 -21.6699 3.5777 -141.825 0 0 0 
120 3 1 -11.8214 -23.1802 -129.441 0 0 0 
122 2 1 -8.95143 -21.9461 -123.326 0 0 0 
123 3 1 -9.68322 -24.8928 -124.968 0 0 0 
121 1 1 -10.8307 -18.2239 -123.554 0 0 0 
119 2 1 -10.7333 -19.812 -127.803 0 0 0 
126 3 1 -5.52147 -18.8554 -114.988 0 0 0 
116 2 1 -8.15736 -14.3317 -130.06 0 0 0 
113 2 1 -15.0733 -11.0582 -126.996 0 0 0 
112 1 1 -14.1768 -10.2622 -130.825 0 0 0 
115 1 1 -11.8284 -12.9013 -129.214 0 0 0 
118 1 1 -10.9055 -15.8964 -126.621 0 0 0 
114 3 1 -18.4355 -11.6927 -126.316 0 0 0 
109 1 1 -15.8142 -7.904 -133.356 0 0 0 
107 2 1 -16.559 -3.44128 -133.234 0 0 0 
108 3 1 -16.672 -2.69296 -129.503 0 0 0 
111 3 1 -20.6921 -6.37105 -127.798 0 0 0 
110 2 1 -18.0639 -7.77601 -129.861 0 0 0 
105 3 1 -21.6703 0.534148 -134.193 0 0 0 
125 2 1 -9.14208 -18.6089 -116.476 0 0 0 
124 1 1 -11.0973 -19.6787 -119.792 0 0 0 
127 1 1 -11.9404 -22.1811 -116.98 0 0 0 
130 1 1 -12.1265 -22.432 -113.078 0 0 0 
128 2 1 -13.3516 -25.8529 -116.99 0 0 0 
129 3 1 -12.766 -28.2167 -119.595 0 0 0 
131 2 1 -9.8632 -20.2765 -110.622 0 0 0 
134 2 1 -16.0248 -25.5513 -107.921 0 0 0 
135 3 1 -17.9459 -27.6341 -105.606 0 0 0 
133 1 1 -13.1063 -23.2823 -109.359 0 0 0 
138 3 1 -12.1279 -30.0548 -102.226 0 0 0 
132 3 1 -9.13441 -17.6165 -108.284 0 0 0 
140 2 1 -13.1255 -24.6567 -98.3269 0 0 0 
137 2 1 -11.9649 -26.4653 -103.287 0 0 0 
136 1 1 -13.0123 -23.1084 -105.569 0 0 0 
139 1 1 -12.7607 -22.3207 -101.63 0 0 0 
144 3 1 -10.9726 -12.5879 -101.03 0 0 0 
141 3 1 -14.2146 -27.2339 -95.7362 0 0 0 
142 1 1 -12.3694 -19.5739 -98.9216 0 0 0 
143 2 1 -10.4496 -16.0846 -99.8711 0 0 0 
145 1 1 -12.5087 -17.0203 -96.0268 0 0 0 
148 1 1 -13.2556 -15.0105 -92.6092 0 0 0 
146 2 1 -10.0441 -13.7933 -96.0711 0 0 0 
147 3 1 -7.11565 -11.9943 -94.411 0 0 0 
149 2 1 -15.8193 -15.7628 -90.0854 0 0 0 
154 1 1 -12.5802 -10.4403 -86.3482 0 0 0 
155 2 1 -15.7071 -9.90537 -83.8326 0 0 0 
150 3 1 -17.0568 -17.4554 -86.8407 0 0 0 
151 1 1 -12.6454 -12.2781 -89.8593 0 0 0 
157 1 1 -11.2013 -8.52762 -83.2279 0 0 0 
153 3 1 -10.6786 -6.24615 -88.3999 0 0 0 
152 2 1 -10.7522 -9.03515 -91.1025 0 0 0 
156 3 1 -19.0694 -8.91032 -83.0213 0 0 0 
159 3 1 -14.0873 -5.91931 -76.9517 0 0 0 
158 2 1 -13.5242 -6.49933 -80.4091 0 0 0 
161 2 1 -5.16189 -6.79004 -79.4045 0 0 0 
162 3 1 -1.57494 -5.89565 -79.7487 0 0 0 
164 2 1 -5.65139 -4.66107 -74.9578 0 0 0 
166 1 1 -10.0062 -4.54155 -72.97 0 0 0 
160 1 1 -9.15683 -7.01206 -80.4 0 0 0 
163 1 1 -9.22534 -5.53757 -76.6135 0 0 0 
165 3 1 -3.8556 -7.70218 -73.3915 0 0 0 
168 3 1 -16.0902 -7.70826 -70.3395 0 0 0 
173 2 1 -10.9466 0.459042 -64.3334 0 0 0 
170 2 1 -7.76711 -0.121517 -67.9711 0 0 0 
169 1 1 -9.86117 -3.2528 -69.3524 0 0 0 
172 1 1 -10.1356 -2.90744 -65.4327 0 0 0 
167 2 1 -12.9797 -6.53035 -71.1407 0 0 0 
174 3 1 -10.2054 3.6465 -63.0344 0 0 0 
171 3 1 -6.29912 3.29649 -67.9835 0 0 0 
177 3 1 -16.9194 -5.89513 -57.7579 0 0 0 
183 3 1 -17.5651 -5.18389 -52.6199 0 0 0 
179 2 1 -6.66577 -2.30679 -56.4271 0 0 0 
180 3 1 -2.90007 -1.88019 -55.7622 0 0 0 
175 1 1 -10.563 -3.5666 -61.7011 0 0 0 
176 2 1 -13.9262 -5.4891 -60.256 0 0 0 
178 1 1 -10.2981 -3.25685 -57.8043 0 0 0 
181 1 1 -10.8102 -3.44923 -53.8929 0 0 0 
182 2 1 -14.3203 -4.25585 -52.0789 0 0 0 
186 3 1 -16.4381 -6.0268 -47.2804 0 0 0 
184 1 1 -10.1952 -3.165 -50.0389 0 0 0 
185 2 1 -13.1886 -4.88068 -47.9505 0 0 0 
187 1 1 -8.97772 -2.59338 -46.2909 0 0 0 
190 1 1 -8.95811 -3.18767 -42.4372 0 0 0 
191 2 1 -10.4173 -6.9174 -41.7547 0 0 0 
188 2 1 -5.69703 -0.402839 -45.5663 0 0 0 
189 3 1 -2.21327 0.305732 -45.2663 0 0 0 
192 3 1 -12.944 -9.51438 -43.1356 0 0 0 
193 1 1 -8.67909 -3.27071 -38.5487 0 0 0 
194 2 1 -11.9414 -3.82899 -36.0819 0 0 0 
196 1 1 -7.65977 -2.91234 -34.9092 0 0 0 
195 3 1 -15.524 -3.52213 -35.0498 0 0 0 
199 1 1 -5.65866 -2.90223 -31.4992 0 0 0 
198 3 1 -12.2347 -4.96806 -30.7994 0 0 0 
197 2 1 -9.9729 -2.6878 -31.9924 0 0 0 
202 1 1 -2.71812 -3.33379 -28.7986 0 0 0 
205 1 1 -0.487619 -2.75973 -25.7412 0 0 0 
206 2 1 -0.448676 -0.171084 -22.6254 0 0 0 
204 3 1 3.49338 -5.55668 -31.5037 0 0 0 
203 2 1 0.410957 -5.55139 -29.1965 0 0 0 
208 1 1 2.57084 -3.62779 -23.5698 0 0 0 
211 1 1 5.96226 -5.57926 -22.8723 0 0 0 
212 2 1 9.05772 -6.63431 -25.4757 0 0 0 
200 2 1 -7.78074 -2.41263 -28.1054 0 0 0 
201 3 1 -10.5904 -2.85434 -26.0003 0 0 0 
207 3 1 1.4065 2.58981 -21.4847 0 0 0 
213 3 1 9.93142 -6.16045 -29.1525 0 0 0 
223 1 1 10.3978 -12.1137 -9.9924 0 0 0 
222 3 1 2.75573 -12.7123 -10.8243 0 0 0 
219 3 1 11.6896 -2.8219 -12.887 0 0 0 
209 2 1 4.20499 -1.83348 -20.126 0 0 0 
210 3 1 3.05485 -0.0471482 -16.8318 0 0 0 
220 1 1 9.26019 -10.5598 -13.3445 0 0 0 
217 1 1 9.21429 -8.44495 -16.6793 0 0 0 
214 1 1 8.15961 -7.2782 -20.1188 0 0 0 
221 2 1 6.1773 -12.5843 -12.19 0 0 0 
218 2 1 11.9535 -6.14775 -14.657 0 0 0 
215 2 1 12.1143 -7.47696 -20.2264 0 0 0 
216 3 1 15.0394 -5.68328 -20.5379 0 0 0 
231 3 1 18.5861 -15.257 0.00699935 0 0 0 
233 2 1 14.0179 -16.4762 3.14208 0 0 0 
234 3 1 16.1962 -18.5951 5.42034 0 0 0 
228 3 1 5.37429 -17.7766 -3.58938 0 0 0 
224 2 1 14.1608 -11.026 -9.18637 0 0 0 
230 2 1 15.0641 -14.2085 -0.354544 0 0 0 
226 1 1 11.0938 -13.4012 -6.25115 0 0 0 
227 2 1 8.56967 -16.3722 -4.82406 0 0 0 
229 1 1 11.8144 -14.0877 -2.53679 0 0 0 
232 1 1 10.7852 -15.3499 0.838159 0 0 0 
225 3 1 16.7665 -8.43257 -8.98535 0 0 0 
236 2 1 8.34229 -20.5554 5.26251 0 0 0 
237 3 1 8.82057 -23.9423 4.26177 0 0 0 
243 3 1 2.78342 -8.03334 11.303 0 0 0 
238 1 1 7.05236 -16.6488 7.61211 0 0 0 
235 1 1 9.04325 -16.6702 4.1699 0 0 0 
242 2 1 4.30452 -11.6089 11.7854 0 0 0 
241 1 1 4.83679 -15.5137 10.7448 0 0 0 
246 3 1 4.01431 -19.5025 19.1343 0 0 0 
240 3 1 6.85031 -23.2203 11.2246 0 0 0 
247 1 1 0.299168 -13.2697 16.3605 0 0 0 
245 2 1 3.09362 -16.4353 17.5954 0 0 0 
250 1 1 -2.0564 -12.1654 19.2527 0 0 0 
239 2 1 7.46325 -19.8107 10.3334 0 0 0 
244 1 1 2.78485 -14.8532 13.8344 0 0 0 
248 2 1 -2.28824 -10.6519 14.5429 0 0 0 
249 3 1 -2.60089 -7.56912 12.9968 0 0 0 
252 3 1 -1.64634 -15.9128 25.7239 0 0 0 
251 2 1 -1.79173 -13.2696 22.9625 0 0 0 
254 2 1 -5.4219 -12.0136 24.9623 0 0 0 
255 3 1 -4.28358 -12.1257 28.5241 0 0 0 