ITEM: TIMESTEP
0
ITEM: NUMBER OF ATOMS
516
ITEM: BOX BOUNDS pp pp pp
-736.806 736.806
-736.806 736.806
-736.806 736.806
ITEM: ATOMS id type mol x y z ix iy iz 
3 3 1 -56.9521 -63.1481 -298.227 0 0 0 
1 1 1 -50.1165 -62.3837 -301.34 0 0 0 
2 2 1 -53.506 -62.4422 -299.469 0 0 0 
4 1 1 -49.531 -61.6486 -297.822 0 0 0 
5 2 1 -46.0035 -62.5877 -298.72 0 0 0 
6 3 1 -42.4163 -63.5586 -297.895 0 0 0 
9 3 1 -55.781 -61.6778 -291.19 0 0 0 
7 1 1 -48.9454 -60.9134 -294.304 0 0 0 
8 2 1 -52.3349 -60.9719 -292.432 0 0 0 
10 1 1 -48.3599 -60.1782 -290.785 0 0 0 
13 1 1 -47.7744 -59.4431 -287.267 0 0 0 
11 2 1 -44.8324 -61.1174 -291.683 0 0 0 
12 3 1 -41.2452 -62.0883 -290.858 0 0 0 
14 2 1 -51.1639 -59.5016 -285.396 0 0 0 
15 3 1 -54.6099 -60.2075 -284.153 0 0 0 
16 1 1 -47.1888 -58.7079 -283.748 0 0 0 
19 1 1 -46.6033 -57.9727 -280.23 0 0 0 
20 2 1 -49.9928 -58.0312 -278.359 0 0 0 
21 3 1 -53.4389 -58.7372 -277.116 0 0 0 
22 1 1 -46.0178 -57.2376 -276.712 0 0 0 
17 2 1 -43.6614 -59.6471 -284.646 0 0 0 
18 3 1 -40.0742 -60.618 -283.821 0 0 0 
23 2 1 -42.4903 -58.1768 -277.609 0 0 0 
24 3 1 -38.9031 -59.1476 -276.784 0 0 0 
25 1 1 -45.4322 -56.5024 -273.193 0 0 0 
26 2 1 -48.8218 -56.5609 -271.322 0 0 0 
27 3 1 -52.2678 -57.2668 -270.08 0 0 0 
28 1 1 -44.8467 -55.7673 -269.675 0 0 0 
29 2 1 -41.3192 -56.7064 -270.572 0 0 0 
30 3 1 -37.732 -57.6773 -269.747 0 0 0 
31 1 1 -44.2612 -55.0321 -266.156 0 0 0 
33 3 1 -51.0968 -55.7965 -263.043 0 0 0 
35 2 1 -40.1482 -55.2361 -263.536 0 0 0 
36 3 1 -36.561 -56.207 -262.711 0 0 0 
32 2 1 -47.6507 -55.0906 -264.285 0 0 0 
38 2 1 -46.4796 -53.6202 -257.248 0 0 0 
39 3 1 -49.9257 -54.3262 -256.006 0 0 0 
34 1 1 -43.6756 -54.2969 -262.638 0 0 0 
37 1 1 -43.0901 -53.5618 -259.12 0 0 0 
41 2 1 -38.9771 -53.7658 -256.499 0 0 0 
42 3 1 -35.3899 -54.7366 -255.674 0 0 0 
44 2 1 -45.3086 -52.1499 -250.212 0 0 0 
45 3 1 -48.7546 -52.8558 -248.969 0 0 0 
40 1 1 -42.5046 -52.8266 -255.601 0 0 0 
43 1 1 -41.9191 -52.0914 -252.083 0 0 0 
46 1 1 -41.3335 -51.3563 -248.564 0 0 0 
47 2 1 -37.8061 -52.2955 -249.462 0 0 0 
48 3 1 -34.2188 -53.2663 -248.637 0 0 0 
51 3 1 -47.5836 -51.3855 -241.932 0 0 0 
49 1 1 -40.748 -50.6211 -245.046 0 0 0 
50 2 1 -44.1375 -50.6796 -243.175 0 0 0 
52 1 1 -40.1625 -49.886 -241.528 0 0 0 
53 2 1 -36.635 -50.8251 -242.425 0 0 0 
55 1 1 -39.5769 -49.1508 -238.009 0 0 0 
56 2 1 -42.9665 -49.2093 -236.138 0 0 0 
54 3 1 -33.0478 -51.796 -241.6 0 0 0 
57 3 1 -46.4125 -49.9152 -234.896 0 0 0 
63 3 1 -45.2415 -48.4449 -227.859 0 0 0 
58 1 1 -38.9914 -48.4156 -234.491 0 0 0 
59 2 1 -35.4639 -49.3548 -235.388 0 0 0 
61 1 1 -38.4059 -47.6805 -230.972 0 0 0 
62 2 1 -41.7954 -47.7389 -229.101 0 0 0 
64 1 1 -37.8203 -46.9453 -227.454 0 0 0 
60 3 1 -31.8767 -50.3257 -234.563 0 0 0 
65 2 1 -34.2929 -47.8845 -228.352 0 0 0 
66 3 1 -30.7057 -48.8553 -227.526 0 0 0 
67 1 1 -37.2348 -46.2101 -223.936 0 0 0 
68 2 1 -40.6243 -46.2686 -222.064 0 0 0 
69 3 1 -44.0704 -46.9745 -220.822 0 0 0 
70 1 1 -36.6493 -45.475 -220.417 0 0 0 
71 2 1 -33.1218 -46.4141 -221.315 0 0 0 
72 3 1 -29.5346 -47.385 -220.49 0 0 0 
73 1 1 -36.0637 -44.7398 -216.899 0 0 0 
75 3 1 -42.8993 -45.5042 -213.785 0 0 0 
78 3 1 -28.3635 -45.9147 -213.453 0 0 0 
74 2 1 -39.4533 -44.7983 -215.028 0 0 0 
76 1 1 -35.4782 -44.0046 -213.38 0 0 0 
80 2 1 -38.2822 -43.328 -207.991 0 0 0 
81 3 1 -41.7283 -44.0339 -206.748 0 0 0 
77 2 1 -31.9507 -44.9438 -214.278 0 0 0 
79 1 1 -34.8927 -43.2695 -209.862 0 0 0 
82 1 1 -34.3072 -42.5343 -206.344 0 0 0 
83 2 1 -30.7797 -43.4735 -207.241 0 0 0 
84 3 1 -27.1925 -44.4444 -206.416 0 0 0 
86 2 1 -37.1111 -41.8576 -200.954 0 0 0 
87 3 1 -40.5572 -42.5636 -199.712 0 0 0 
85 1 1 -33.7216 -41.7991 -202.825 0 0 0 
88 1 1 -33.1361 -41.064 -199.307 0 0 0 
89 2 1 -29.6086 -42.0032 -200.204 0 0 0 
90 3 1 -26.0214 -42.974 -199.379 0 0 0 
91 1 1 -32.5506 -40.3288 -195.788 0 0 0 
92 2 1 -35.9401 -40.3873 -193.917 0 0 0 
93 3 1 -39.3862 -41.0932 -192.675 0 0 0 
99 3 1 -38.2151 -39.6229 -185.638 0 0 0 
94 1 1 -31.965 -39.5937 -192.27 0 0 0 
95 2 1 -28.4376 -40.5329 -193.168 0 0 0 
97 1 1 -31.3795 -38.8585 -188.752 0 0 0 
98 2 1 -34.769 -38.917 -186.88 0 0 0 
101 2 1 -27.2665 -39.0625 -186.131 0 0 0 
96 3 1 -24.8503 -41.5037 -192.343 0 0 0 
105 3 1 -37.044 -38.1526 -178.601 0 0 0 
100 1 1 -30.794 -38.1233 -185.233 0 0 0 
103 1 1 -30.2084 -37.3882 -181.715 0 0 0 
104 2 1 -33.598 -37.4466 -179.844 0 0 0 
106 1 1 -29.6229 -36.653 -178.196 0 0 0 
107 2 1 -26.0954 -37.5922 -179.094 0 0 0 
102 3 1 -23.6793 -40.0334 -185.306 0 0 0 
108 3 1 -22.5082 -38.563 -178.269 0 0 0 
111 3 1 -35.873 -36.6823 -171.564 0 0 0 
109 1 1 -29.0374 -35.9178 -174.678 0 0 0 
110 2 1 -32.4269 -35.9763 -172.807 0 0 0 
112 1 1 -28.4519 -35.1827 -171.16 0 0 0 
113 2 1 -24.9244 -36.1219 -172.057 0 0 0 
114 3 1 -21.3372 -37.0927 -171.232 0 0 0 
115 1 1 -27.8663 -34.4475 -167.641 0 0 0 
116 2 1 -31.2558 -34.506 -165.77 0 0 0 
117 3 1 -34.7019 -35.2119 -164.528 0 0 0 
120 3 1 -20.1661 -35.6224 -164.195 0 0 0 
118 1 1 -27.2808 -33.7124 -164.123 0 0 0 
121 1 1 -26.6953 -32.9772 -160.604 0 0 0 
122 2 1 -30.0848 -33.0357 -158.733 0 0 0 
123 3 1 -33.5309 -33.7416 -157.491 0 0 0 
124 1 1 -26.1097 -32.242 -157.086 0 0 0 
119 2 1 -23.7533 -34.6515 -165.02 0 0 0 
125 2 1 -22.5823 -33.1812 -157.984 0 0 0 
126 3 1 -18.995 -34.1521 -157.159 0 0 0 
127 1 1 -25.5242 -31.5069 -153.568 0 0 0 
128 2 1 -28.9137 -31.5653 -151.696 0 0 0 
129 3 1 -32.3598 -32.2713 -150.454 0 0 0 
130 1 1 -24.9387 -30.7717 -150.049 0 0 0 
131 2 1 -21.4112 -31.7109 -150.947 0 0 0 
132 3 1 -17.824 -32.6817 -150.122 0 0 0 
133 1 1 -24.3531 -30.0365 -146.531 0 0 0 
134 2 1 -27.7427 -30.095 -144.66 0 0 0 
135 3 1 -31.1887 -30.8009 -143.417 0 0 0 
140 2 1 -26.5716 -28.6247 -137.623 0 0 0 
141 3 1 -30.0177 -29.3306 -136.38 0 0 0 
136 1 1 -23.7676 -29.3014 -143.012 0 0 0 
137 2 1 -20.2401 -30.2406 -143.91 0 0 0 
138 3 1 -16.6529 -31.2114 -143.085 0 0 0 
139 1 1 -23.1821 -28.5662 -139.494 0 0 0 
142 1 1 -22.5965 -27.831 -135.976 0 0 0 
143 2 1 -19.0691 -28.7702 -136.873 0 0 0 
144 3 1 -15.4819 -29.7411 -136.048 0 0 0 
146 2 1 -25.4005 -27.1544 -130.586 0 0 0 
147 3 1 -28.8466 -27.8603 -129.344 0 0 0 
145 1 1 -22.011 -27.0959 -132.457 0 0 0 
148 1 1 -21.4255 -26.3607 -128.939 0 0 0 
149 2 1 -17.898 -27.2999 -129.837 0 0 0 
151 1 1 -20.84 -25.6256 -125.42 0 0 0 
150 3 1 -14.3108 -28.2708 -129.011 0 0 0 
153 3 1 -27.6755 -26.39 -122.307 0 0 0 
152 2 1 -24.2295 -25.684 -123.549 0 0 0 
155 2 1 -16.7269 -25.8296 -122.8 0 0 0 
156 3 1 -13.1397 -26.8004 -121.975 0 0 0 
154 1 1 -20.2544 -24.8904 -121.902 0 0 0 
157 1 1 -19.6689 -24.1552 -118.384 0 0 0 
158 2 1 -23.0584 -24.2137 -116.512 0 0 0 
161 2 1 -15.5559 -24.3592 -115.763 0 0 0 
162 3 1 -11.9687 -25.3301 -114.938 0 0 0 
159 3 1 -26.5045 -24.9196 -115.27 0 0 0 
165 3 1 -25.3334 -23.4493 -108.233 0 0 0 
160 1 1 -19.0834 -23.4201 -114.865 0 0 0 
163 1 1 -18.4978 -22.6849 -111.347 0 0 0 
164 2 1 -21.8874 -22.7434 -109.475 0 0 0 
166 1 1 -17.9123 -21.9497 -107.828 0 0 0 
167 2 1 -14.3848 -22.8889 -108.726 0 0 0 
168 3 1 -10.7976 -23.8598 -107.901 0 0 0 
169 1 1 -17.3268 -21.2146 -104.31 0 0 0 
170 2 1 -20.7163 -21.2731 -102.439 0 0 0 
171 3 1 -24.1623 -21.979 -101.196 0 0 0 
172 1 1 -16.7412 -20.4794 -100.792 0 0 0 
175 1 1 -16.1557 -19.7443 -97.2732 0 0 0 
176 2 1 -19.5452 -19.8027 -95.4019 0 0 0 
173 2 1 -13.2138 -21.4186 -101.689 0 0 0 
174 3 1 -9.62656 -22.3895 -100.864 0 0 0 
177 3 1 -22.9913 -20.5086 -94.1596 0 0 0 
178 1 1 -15.5702 -19.0091 -93.7548 0 0 0 
182 2 1 -18.3742 -18.3324 -88.3651 0 0 0 
183 3 1 -21.8202 -19.0383 -87.1228 0 0 0 
179 2 1 -12.0427 -19.9483 -94.6525 0 0 0 
180 3 1 -8.4555 -20.9191 -93.8274 0 0 0 
181 1 1 -14.9846 -18.2739 -90.2364 0 0 0 
184 1 1 -14.3991 -17.5388 -86.718 0 0 0 
185 2 1 -10.8717 -18.4779 -87.6157 0 0 0 
186 3 1 -7.28443 -19.4488 -86.7906 0 0 0 
188 2 1 -17.2031 -16.8621 -81.3283 0 0 0 
189 3 1 -20.6492 -17.568 -80.0861 0 0 0 
187 1 1 -13.8136 -16.8036 -83.1996 0 0 0 
190 1 1 -13.228 -16.0684 -79.6812 0 0 0 
191 2 1 -9.70059 -17.0076 -80.5789 0 0 0 
192 3 1 -6.11337 -17.9785 -79.7538 0 0 0 
193 1 1 -12.6425 -15.3333 -76.1628 0 0 0 
194 2 1 -16.032 -15.3918 -74.2915 0 0 0 
195 3 1 -19.4781 -16.0977 -73.0493 0 0 0 
197 2 1 -8.52953 -15.5373 -73.5421 0 0 0 
198 3 1 -4.94231 -16.5082 -72.7169 0 0 0 
204 3 1 -3.77125 -15.0378 -65.6801 0 0 0 
201 3 1 -18.3071 -14.6273 -66.0125 0 0 0 
196 1 1 -12.057 -14.5981 -72.6444 0 0 0 
199 1 1 -11.4715 -13.8629 -69.126 0 0 0 
200 2 1 -14.861 -13.9214 -67.2547 0 0 0 
202 1 1 -10.8859 -13.1278 -65.6076 0 0 0 
203 2 1 -7.35847 -14.067 -66.5053 0 0 0 
207 3 1 -17.136 -13.157 -58.9757 0 0 0 
205 1 1 -10.3004 -12.3926 -62.0892 0 0 0 
206 2 1 -13.6899 -12.4511 -60.2179 0 0 0 
208 1 1 -9.71487 -11.6575 -58.5708 0 0 0 
209 2 1 -6.18741 -12.5966 -59.4685 0 0 0 
210 3 1 -2.60019 -13.5675 -58.6433 0 0 0 
213 3 1 -15.9649 -11.6867 -51.9389 0 0 0 
211 1 1 -9.12934 -10.9223 -55.0524 0 0 0 
212 2 1 -12.5189 -10.9808 -53.1811 0 0 0 
214 1 1 -8.54381 -10.1871 -51.534 0 0 0 
215 2 1 -5.01635 -11.1263 -52.4317 0 0 0 
217 1 1 -7.95828 -9.45196 -48.0156 0 0 0 
218 2 1 -11.3478 -9.51044 -46.1443 0 0 0 
216 3 1 -1.42913 -12.0972 -51.6065 0 0 0 
221 2 1 -3.84528 -9.65598 -45.3949 0 0 0 
219 3 1 -14.7939 -10.2164 -44.9021 0 0 0 
220 1 1 -7.37275 -8.7168 -44.4972 0 0 0 
223 1 1 -6.78722 -7.98163 -40.9788 0 0 0 
224 2 1 -10.1767 -8.04012 -39.1075 0 0 0 
225 3 1 -13.6228 -8.74604 -37.8652 0 0 0 
226 1 1 -6.20169 -7.24647 -37.4604 0 0 0 
222 3 1 -0.258066 -10.6268 -44.5697 0 0 0 
227 2 1 -2.67422 -8.18566 -38.3581 0 0 0 
228 3 1 0.912995 -9.15652 -37.5329 0 0 0 
229 1 1 -5.61616 -6.51131 -33.942 0 0 0 
230 2 1 -9.00567 -6.56979 -32.0707 0 0 0 
231 3 1 -12.4517 -7.27571 -30.8284 0 0 0 
232 1 1 -5.03063 -5.77614 -30.4236 0 0 0 
233 2 1 -1.50316 -6.71533 -31.3213 0 0 0 
234 3 1 2.08406 -7.68619 -30.4962 0 0 0 
235 1 1 -4.4451 -5.04098 -26.9052 0 0 0 
236 2 1 -7.83461 -5.09946 -25.0339 0 0 0 
237 3 1 -11.2807 -5.80539 -23.7916 0 0 0 
239 2 1 -0.332099 -5.245 -24.2845 0 0 0 
240 3 1 3.25512 -6.21586 -23.4593 0 0 0 
242 2 1 -6.66355 -3.62914 -17.9971 0 0 0 
243 3 1 -10.1096 -4.33506 -16.7548 0 0 0 
238 1 1 -3.85956 -4.30582 -23.3868 0 0 0 
241 1 1 -3.27403 -3.57065 -19.8684 0 0 0 
244 1 1 -2.6885 -2.83549 -16.35 0 0 0 
245 2 1 0.838961 -3.77467 -17.2477 0 0 0 
246 3 1 4.42618 -4.74554 -16.4225 0 0 0 
248 2 1 -5.49249 -2.15881 -10.9603 0 0 0 
249 3 1 -8.93856 -2.86473 -9.71804 0 0 0 
247 1 1 -2.10297 -2.10033 -12.8316 0 0 0 
250 1 1 -1.51744 -1.36516 -9.31319 0 0 0 
251 2 1 2.01002 -2.30435 -10.2109 0 0 0 
253 1 1 -0.931911 -0.629998 -5.79479 0 0 0 
252 3 1 5.59724 -3.27521 -9.38575 0 0 0 
255 3 1 -7.7675 -1.3944 -2.68124 0 0 0 
261 3 1 -6.59644 0.075921 4.35556 0 0 0 
254 2 1 -4.32143 -0.688482 -3.92353 0 0 0 
256 1 1 -0.34638 0.105164 -2.27638 0 0 0 
257 2 1 3.18108 -0.83402 -3.17409 0 0 0 
259 1 1 0.23915 0.840328 1.24202 0 0 0 
260 2 1 -3.15037 0.781844 3.11327 0 0 0 
262 1 1 0.82468 1.57549 4.76042 0 0 0 
263 2 1 4.35215 0.636306 3.86271 0 0 0 
258 3 1 6.7683 -1.80488 -2.34895 0 0 0 
264 3 1 7.93936 -0.334554 4.68786 0 0 0 
267 3 1 -5.42537 1.54625 11.3924 0 0 0 
265 1 1 1.41021 2.31066 8.27882 0 0 0 
266 2 1 -1.97931 2.25217 10.1501 0 0 0 
268 1 1 1.99574 3.04582 11.7972 0 0 0 
269 2 1 5.52321 2.10663 10.8995 0 0 0 
270 3 1 9.11042 1.13577 11.7247 0 0 0 
271 1 1 2.58127 3.78098 15.3156 0 0 0 
272 2 1 -0.808244 3.7225 17.1869 0 0 0 
273 3 1 -4.25431 3.01658 18.4292 0 0 0 
274 1 1 3.1668 4.51615 18.834 0 0 0 
275 2 1 6.69427 3.57696 17.9363 0 0 0 
276 3 1 10.2815 2.6061 18.7614 0 0 0 
277 1 1 3.75233 5.25131 22.3524 0 0 0 
278 2 1 0.362816 5.19283 24.2237 0 0 0 
281 2 1 7.86533 5.04729 24.9731 0 0 0 
279 3 1 -3.08325 4.4869 25.466 0 0 0 
282 3 1 11.4525 4.07643 25.7983 0 0 0 
280 1 1 4.33786 5.98647 25.8708 0 0 0 
283 1 1 4.9234 6.72164 29.3892 0 0 0 
284 2 1 1.53388 6.66315 31.2605 0 0 0 
285 3 1 -1.91219 5.95723 32.5028 0 0 0 
286 1 1 5.50893 7.4568 32.9076 0 0 0 
287 2 1 9.03639 6.51761 32.0099 0 0 0 
288 3 1 12.6236 5.54675 32.8351 0 0 0 
290 2 1 2.70494 8.13348 38.2973 0 0 0 
291 3 1 -0.74113 7.42756 39.5396 0 0 0 
289 1 1 6.09446 8.19196 36.426 0 0 0 
292 1 1 6.67999 8.92713 39.9444 0 0 0 
293 2 1 10.2074 7.98794 39.0467 0 0 0 
294 3 1 13.7947 7.01708 39.8719 0 0 0 
295 1 1 7.26552 9.66229 43.4628 0 0 0 
296 2 1 3.876 9.60381 45.3341 0 0 0 
297 3 1 0.429931 8.89788 46.5764 0 0 0 
303 3 1 1.60099 10.3682 53.6132 0 0 0 
298 1 1 7.85105 10.3974 46.9812 0 0 0 
299 2 1 11.3785 9.45827 46.0835 0 0 0 
300 3 1 14.9657 8.48741 46.9087 0 0 0 
301 1 1 8.43658 11.1326 50.4996 0 0 0 
302 2 1 5.04706 11.0741 52.3709 0 0 0 
304 1 1 9.02211 11.8678 54.018 0 0 0 
305 2 1 12.5496 10.9286 53.1203 0 0 0 
306 3 1 16.1368 9.95773 53.9455 0 0 0 
309 3 1 2.77205 11.8385 60.65 0 0 0 
307 1 1 9.60764 12.6029 57.5364 0 0 0 
308 2 1 6.21812 12.5445 59.4077 0 0 0 
310 1 1 10.1932 13.3381 61.0548 0 0 0 
311 2 1 13.7206 12.3989 60.1571 0 0 0 
313 1 1 10.7787 14.0733 64.5732 0 0 0 
312 3 1 17.3078 11.4281 60.9823 0 0 0 
315 3 1 3.94312 13.3089 67.6868 0 0 0 
314 2 1 7.38919 14.0148 66.4445 0 0 0 
316 1 1 11.3642 14.8084 68.0916 0 0 0 
317 2 1 14.8917 13.8692 67.1939 0 0 0 
321 3 1 5.11418 14.7792 74.7236 0 0 0 
318 3 1 18.4789 12.8984 68.0191 0 0 0 
324 3 1 19.65 14.3687 75.0559 0 0 0 
319 1 1 11.9498 15.5436 71.61 0 0 0 
320 2 1 8.56025 15.4851 73.4813 0 0 0 
322 1 1 12.5353 16.2788 75.1284 0 0 0 
323 2 1 16.0628 15.3396 74.2307 0 0 0 
325 1 1 13.1208 17.0139 78.6468 0 0 0 
326 2 1 9.73131 16.9554 80.5181 0 0 0 
327 3 1 6.28524 16.2495 81.7604 0 0 0 
328 1 1 13.7064 17.7491 82.1652 0 0 0 
329 2 1 17.2338 16.8099 81.2675 0 0 0 
330 3 1 20.821 15.839 82.0927 0 0 0 
331 1 1 14.2919 18.4842 85.6836 0 0 0 
332 2 1 10.9024 18.4258 87.5549 0 0 0 
333 3 1 7.4563 17.7198 88.7972 0 0 0 
334 1 1 14.8774 19.2194 89.202 0 0 0 
338 2 1 12.0734 19.8961 94.5917 0 0 0 
335 2 1 18.4049 18.2802 88.3043 0 0 0 
336 3 1 21.9921 17.3094 89.1295 0 0 0 
337 1 1 15.4629 19.9546 92.7204 0 0 0 
339 3 1 8.62736 19.1902 95.834 0 0 0 
344 2 1 13.2445 21.3664 101.628 0 0 0 
345 3 1 9.79842 20.6605 102.871 0 0 0 
340 1 1 16.0485 20.6897 96.2388 0 0 0 
341 2 1 19.5759 19.7506 95.3411 0 0 0 
342 3 1 23.1632 18.7797 96.1663 0 0 0 
343 1 1 16.634 21.4249 99.7572 0 0 0 
346 1 1 17.2195 22.1601 103.276 0 0 0 
347 2 1 20.747 21.2209 102.378 0 0 0 
348 3 1 24.3342 20.25 103.203 0 0 0 
350 2 1 14.4155 22.8367 108.665 0 0 0 
351 3 1 10.9695 22.1308 109.907 0 0 0 
349 1 1 17.8051 22.8952 106.794 0 0 0 
352 1 1 18.3906 23.6304 110.312 0 0 0 
353 2 1 21.9181 22.6912 109.415 0 0 0 
355 1 1 18.9761 24.3656 113.831 0 0 0 
354 3 1 25.5053 21.7203 110.24 0 0 0 
357 3 1 12.1405 23.6012 116.944 0 0 0 
356 2 1 15.5866 24.3071 115.702 0 0 0 
359 2 1 23.0891 24.1615 116.451 0 0 0 
360 3 1 26.6763 23.1907 117.277 0 0 0 
366 3 1 27.8474 24.661 124.313 0 0 0 
363 3 1 13.3116 25.0715 123.981 0 0 0 
358 1 1 19.5617 25.1007 117.349 0 0 0 
361 1 1 20.1472 25.8359 120.868 0 0 0 
362 2 1 16.7577 25.7774 122.739 0 0 0 
364 1 1 20.7327 26.571 124.386 0 0 0 
365 2 1 24.2602 25.6319 123.488 0 0 0 
369 3 1 14.4827 26.5418 131.018 0 0 0 
367 1 1 21.3182 27.3062 127.904 0 0 0 
368 2 1 17.9287 27.2477 129.776 0 0 0 
370 1 1 21.9038 28.0414 131.423 0 0 0 
373 1 1 22.4893 28.7765 134.941 0 0 0 
371 2 1 25.4312 27.1022 130.525 0 0 0 
372 3 1 29.0185 26.1313 131.35 0 0 0 
374 2 1 19.0998 28.7181 136.812 0 0 0 
375 3 1 15.6537 28.0121 138.055 0 0 0 
376 1 1 23.0748 29.5117 138.46 0 0 0 
379 1 1 23.6604 30.2469 141.978 0 0 0 
380 2 1 20.2709 30.1884 143.849 0 0 0 
381 3 1 16.8248 29.4825 145.091 0 0 0 
377 2 1 26.6023 28.5725 137.562 0 0 0 
378 3 1 30.1895 27.6017 138.387 0 0 0 
383 2 1 27.7734 30.0428 144.599 0 0 0 
382 1 1 24.2459 30.982 145.496 0 0 0 
385 1 1 24.8314 31.7172 149.015 0 0 0 
386 2 1 21.4419 31.6587 150.886 0 0 0 
387 3 1 17.9959 30.9528 152.128 0 0 0 
384 3 1 31.3606 29.072 145.424 0 0 0 
388 1 1 25.417 32.4524 152.533 0 0 0 
389 2 1 28.9444 31.5132 151.636 0 0 0 
390 3 1 32.5316 30.5423 152.461 0 0 0 
392 2 1 22.613 33.129 157.923 0 0 0 
393 3 1 19.1669 32.4231 159.165 0 0 0 
398 2 1 23.784 34.5994 164.96 0 0 0 
391 1 1 26.0025 33.1875 156.052 0 0 0 
394 1 1 26.588 33.9227 159.57 0 0 0 
395 2 1 30.1155 32.9835 158.672 0 0 0 
396 3 1 33.7027 32.0126 159.497 0 0 0 
397 1 1 27.1736 34.6579 163.088 0 0 0 
399 3 1 20.338 33.8934 166.202 0 0 0 
401 2 1 31.2865 34.4538 165.709 0 0 0 
402 3 1 34.8738 33.483 166.534 0 0 0 
408 3 1 36.0448 34.9533 173.571 0 0 0 
404 2 1 24.9551 36.0697 171.996 0 0 0 
405 3 1 21.509 35.3638 173.239 0 0 0 
400 1 1 27.7591 35.393 166.607 0 0 0 
403 1 1 28.3446 36.1282 170.125 0 0 0 
406 1 1 28.9302 36.8633 173.644 0 0 0 
407 2 1 32.4576 35.9241 172.746 0 0 0 
411 3 1 22.6801 36.8341 180.275 0 0 0 
409 1 1 29.5157 37.5985 177.162 0 0 0 
410 2 1 26.1262 37.54 179.033 0 0 0 
412 1 1 30.1012 38.3337 180.68 0 0 0 
413 2 1 33.6287 37.3945 179.783 0 0 0 
415 1 1 30.6867 39.0688 184.199 0 0 0 
414 3 1 37.2159 36.4236 180.608 0 0 0 
417 3 1 23.8512 38.3044 187.312 0 0 0 
423 3 1 25.0222 39.7747 194.349 0 0 0 
416 2 1 27.2972 39.0103 186.07 0 0 0 
418 1 1 31.2723 39.804 187.717 0 0 0 
419 2 1 34.7997 38.8648 186.82 0 0 0 
421 1 1 31.8578 40.5391 191.236 0 0 0 
422 2 1 28.4683 40.4807 193.107 0 0 0 
424 1 1 32.4433 41.2743 194.754 0 0 0 
420 3 1 38.387 37.8939 187.645 0 0 0 
425 2 1 35.9708 40.3351 193.856 0 0 0 
426 3 1 39.558 39.3643 194.681 0 0 0 
427 1 1 33.0289 42.0095 198.272 0 0 0 
428 2 1 29.6394 41.951 200.144 0 0 0 
429 3 1 26.1933 41.2451 201.386 0 0 0 
430 1 1 33.6144 42.7446 201.791 0 0 0 
433 1 1 34.1999 43.4798 205.309 0 0 0 
431 2 1 37.1419 41.8055 200.893 0 0 0 
432 3 1 40.7291 40.8346 201.718 0 0 0 
434 2 1 30.8104 43.4213 207.18 0 0 0 
435 3 1 27.3643 42.7154 208.423 0 0 0 
436 1 1 34.7855 44.215 208.828 0 0 0 
440 2 1 31.9815 44.8916 214.217 0 0 0 
441 3 1 28.5354 44.1857 215.46 0 0 0 
437 2 1 38.3129 43.2758 207.93 0 0 0 
438 3 1 41.9001 42.3049 208.755 0 0 0 
439 1 1 35.371 44.9501 212.346 0 0 0 
443 2 1 39.484 44.7461 214.967 0 0 0 
444 3 1 43.0712 43.7752 215.792 0 0 0 
446 2 1 33.1525 46.362 221.254 0 0 0 
447 3 1 29.7065 45.6561 222.496 0 0 0 
442 1 1 35.9565 45.6853 215.864 0 0 0 
445 1 1 36.5421 46.4205 219.383 0 0 0 
448 1 1 37.1276 47.1556 222.901 0 0 0 
449 2 1 40.6551 46.2164 222.004 0 0 0 
450 3 1 44.2423 45.2456 222.829 0 0 0 
452 2 1 34.3236 47.8323 228.291 0 0 0 
453 3 1 30.8775 47.1264 229.533 0 0 0 
451 1 1 37.7131 47.8908 226.42 0 0 0 
454 1 1 38.2986 48.626 229.938 0 0 0 
455 2 1 41.8261 47.6868 229.04 0 0 0 
457 1 1 38.8842 49.3611 233.456 0 0 0 
458 2 1 35.4947 49.3026 235.328 0 0 0 
456 3 1 45.4133 46.7159 229.865 0 0 0 
459 3 1 32.0486 48.5967 236.57 0 0 0 
465 3 1 33.2197 50.067 243.607 0 0 0 
460 1 1 39.4697 50.0963 236.975 0 0 0 
461 2 1 42.9972 49.1571 236.077 0 0 0 
463 1 1 40.0552 50.8314 240.493 0 0 0 
464 2 1 36.6657 50.773 242.364 0 0 0 
466 1 1 40.6408 51.5666 244.012 0 0 0 
467 2 1 44.1682 50.6274 243.114 0 0 0 
462 3 1 46.5844 48.1862 236.902 0 0 0 
468 3 1 47.7555 49.6566 243.939 0 0 0 
471 3 1 34.3907 51.5374 250.644 0 0 0 
469 1 1 41.2263 52.3018 247.53 0 0 0 
470 2 1 37.8368 52.2433 249.401 0 0 0 
472 1 1 41.8118 53.0369 251.048 0 0 0 
475 1 1 42.3974 53.7721 254.567 0 0 0 
473 2 1 45.3393 52.0977 250.151 0 0 0 
474 3 1 48.9265 51.1269 250.976 0 0 0 
476 2 1 39.0078 53.7136 256.438 0 0 0 
477 3 1 35.5618 53.0077 257.68 0 0 0 
478 1 1 42.9829 54.5073 258.085 0 0 0 
483 3 1 36.7328 54.478 264.717 0 0 0 
479 2 1 46.5104 53.5681 257.188 0 0 0 
480 3 1 50.0976 52.5972 258.013 0 0 0 
485 2 1 47.6814 55.0384 264.224 0 0 0 
486 3 1 51.2686 54.0675 265.05 0 0 0 
481 1 1 43.5684 55.2424 261.604 0 0 0 
482 2 1 40.1789 55.1839 263.475 0 0 0 
484 1 1 44.154 55.9776 265.122 0 0 0 
487 1 1 44.7395 56.7127 268.64 0 0 0 
488 2 1 41.35 56.6543 270.512 0 0 0 
489 3 1 37.9039 55.9483 271.754 0 0 0 
490 1 1 45.325 57.4479 272.159 0 0 0 
491 2 1 48.8525 56.5087 271.261 0 0 0 
492 3 1 52.4397 55.5379 272.086 0 0 0 
494 2 1 42.521 58.1246 277.548 0 0 0 
495 3 1 39.075 57.4187 278.791 0 0 0 
500 2 1 43.6921 59.5949 284.585 0 0 0 
493 1 1 45.9105 58.1831 275.677 0 0 0 
496 1 1 46.4961 58.9182 279.196 0 0 0 
497 2 1 50.0235 57.9791 278.298 0 0 0 
498 3 1 53.6108 57.0082 279.123 0 0 0 
499 1 1 47.0816 59.6534 282.714 0 0 0 
503 2 1 51.1946 59.4494 285.335 0 0 0 
501 3 1 40.246 58.889 285.828 0 0 0 
506 2 1 44.8631 61.0652 291.622 0 0 0 
507 3 1 41.4171 60.3593 292.864 0 0 0 
502 1 1 47.6671 60.3886 286.232 0 0 0 
504 3 1 54.7818 58.4785 286.16 0 0 0 
505 1 1 48.2527 61.1237 289.751 0 0 0 
508 1 1 48.8382 61.8589 293.269 0 0 0 
509 2 1 52.3657 60.9197 292.372 0 0 0 
510 3 1 55.9529 59.9489 293.197 0 0 0 
513 3 1 42.5881 61.8297 299.901 0 0 0 
511 1 1 49.4237 62.5941 296.788 0 0 0 
512 2 1 46.0342 62.5356 298.659 0 0 0 
514 1 1 50.0093 63.3292 300.306 0 0 0 
515 2 1 53.5367 62.39 299.408 0 0 0 
516 3 1 57.1239 61.4192 300.233 0 0 0 
ITEM: TIMESTEP
100000
ITEM: NUMBER OF ATOMS
516
ITEM: BOX BOUNDS pp pp pp
-736.806 736.806
-736.806 736.806
-736.806 736.806
ITEM: ATOMS id type mol x y z ix iy iz 
4 1 1 -63.7751 -84.2389 -252.853 0 0 0 
1 1 1 -65.7285 -86.8893 -255.002 0 0 0 
2 2 1 -62.0812 -88.3152 -255.587 0 0 0 
3 3 1 -58.6612 -89.8507 -254.939 0 0 0 
6 3 1 -66.5239 -78.465 -248.542 0 0 0 
5 2 1 -65.3709 -81.6818 -250.377 0 0 0 
7 1 1 -60.9927 -82.3892 -251.218 0 0 0 
11 2 1 -60.2034 -80.1551 -245.045 0 0 0 
10 1 1 -58.6044 -80.9917 -248.524 0 0 0 
13 1 1 -55.6188 -79.4741 -246.356 0 0 0 
8 2 1 -57.5043 -82.7604 -253.282 0 0 0 
9 3 1 -55.6544 -82.3584 -256.295 0 0 0 
12 3 1 -60.6526 -81.3568 -241.554 0 0 0 
15 3 1 -55.5366 -84.2773 -240.723 0 0 0 
14 2 1 -55.3193 -81.361 -242.827 0 0 0 
17 2 1 -51.05 -73.8183 -245.881 0 0 0 
16 1 1 -52.6176 -77.3961 -244.963 0 0 0 
20 2 1 -49.9982 -79.7013 -239.108 0 0 0 
19 1 1 -50.2983 -76.8079 -241.936 0 0 0 
22 1 1 -48.4649 -75.5436 -238.726 0 0 0 
18 3 1 -52.0214 -70.4087 -245.872 0 0 0 
21 3 1 -50.8289 -83.279 -237.883 0 0 0 
26 2 1 -48.7281 -76.1006 -231.992 0 0 0 
28 1 1 -44.294 -73.9217 -232.261 0 0 0 
25 1 1 -46.6039 -75.0495 -235.335 0 0 0 
27 3 1 -51.0679 -79.101 -232.103 0 0 0 
32 2 1 -37.7148 -75.3286 -229.786 0 0 0 
23 2 1 -45.4847 -72.9147 -239.396 0 0 0 
24 3 1 -44.1338 -70.3076 -241.861 0 0 0 
29 2 1 -45.0107 -71.9922 -229.054 0 0 0 
30 3 1 -44.593 -68.5706 -227.256 0 0 0 
31 1 1 -41.3294 -73.8065 -229.801 0 0 0 
33 3 1 -34.1255 -75.8821 -230.906 0 0 0 
38 2 1 -32.8801 -72.6376 -224.751 0 0 0 
39 3 1 -30.4225 -70.6505 -226.471 0 0 0 
35 2 1 -40.5105 -70.6147 -223.553 0 0 0 
36 3 1 -40.7356 -67.1982 -222.142 0 0 0 
34 1 1 -39.4181 -73.2109 -226.455 0 0 0 
37 1 1 -36.6687 -73.6608 -223.636 0 0 0 
40 1 1 -33.9145 -73.4948 -220.866 0 0 0 
41 2 1 -34.8648 -73.7172 -216.986 0 0 0 
43 1 1 -30.6909 -73.2276 -218.756 0 0 0 
42 3 1 -36.3836 -75.8391 -214.17 0 0 0 
45 3 1 -25.3734 -69.1557 -222.02 0 0 0 
44 2 1 -27.3083 -71.9578 -220.593 0 0 0 
48 3 1 -20.9573 -72.6236 -217.426 0 0 0 
47 2 1 -24.2868 -72.1949 -215.792 0 0 0 
46 1 1 -28.3239 -72.5078 -215.777 0 0 0 
50 2 1 -29.4703 -72.9616 -208.868 0 0 0 
49 1 1 -27.2397 -72.1282 -212.09 0 0 0 
52 1 1 -25.2082 -71.8487 -208.863 0 0 0 
55 1 1 -23.9274 -71.1984 -205.2 0 0 0 
53 2 1 -21.2568 -72.6745 -208.292 0 0 0 
54 3 1 -17.6746 -72.3786 -208.989 0 0 0 
51 3 1 -31.7646 -74.9935 -206.64 0 0 0 
56 2 1 -26.2989 -71.3717 -201.797 0 0 0 
59 2 1 -17.9757 -68.6575 -203.543 0 0 0 
60 3 1 -15.4852 -71.1719 -203.824 0 0 0 
58 1 1 -21.7179 -69.6191 -202.411 0 0 0 
57 3 1 -26.9083 -69.086 -198.662 0 0 0 
61 1 1 -20.4246 -67.952 -199.056 0 0 0 
64 1 1 -20.4183 -68.0032 -195.204 0 0 0 
62 2 1 -17.6309 -65.4257 -198.232 0 0 0 
63 3 1 -15.7656 -62.0922 -197.485 0 0 0 
66 3 1 -26.4315 -71.1232 -191.473 0 0 0 
65 2 1 -23.6237 -70.1071 -193.819 0 0 0 
71 2 1 -24.4162 -68.0057 -185.414 0 0 0 
72 3 1 -25.7778 -70.0434 -182.923 0 0 0 
67 1 1 -20.5946 -67.3109 -191.272 0 0 0 
68 2 1 -18.1604 -64.5192 -190.213 0 0 0 
70 1 1 -21.2866 -66.8133 -187.526 0 0 0 
73 1 1 -20.8491 -65.2347 -183.83 0 0 0 
69 3 1 -14.9648 -62.7822 -190.77 0 0 0 
74 2 1 -22.1452 -67.1688 -180.593 0 0 0 
75 3 1 -21.6738 -69.7036 -177.881 0 0 0 
78 3 1 -19.965 -65.0863 -173.712 0 0 0 
76 1 1 -19.9516 -62.9459 -181.045 0 0 0 
77 2 1 -19.4214 -64.1358 -177.122 0 0 0 
79 1 1 -19.095 -60.1234 -178.78 0 0 0 
82 1 1 -18.5361 -57.3988 -176.112 0 0 0 
80 2 1 -21.1214 -56.8679 -180.136 0 0 0 
81 3 1 -23.424 -54.0951 -181.558 0 0 0 
83 2 1 -17.5397 -58.0868 -172.233 0 0 0 
84 3 1 -17.5455 -59.2876 -168.504 0 0 0 
86 2 1 -17.2252 -53.1595 -170.587 0 0 0 
87 3 1 -14.9121 -53.5785 -167.528 0 0 0 
90 3 1 -22.7255 -45.3434 -177.409 0 0 0 
89 2 1 -21.1527 -47.5749 -174.834 0 0 0 
94 1 1 -21.9859 -45.2067 -167.86 0 0 0 
88 1 1 -19.93 -50.4222 -173.115 0 0 0 
85 1 1 -18.7045 -53.9836 -174.257 0 0 0 
91 1 1 -20.6957 -48.0873 -170.125 0 0 0 
95 2 1 -24.1548 -41.8973 -168.32 0 0 0 
96 3 1 -25.4095 -39.1645 -170.623 0 0 0 
93 3 1 -16.9446 -46.1118 -163.699 0 0 0 
92 2 1 -18.6492 -47.7948 -166.704 0 0 0 
102 3 1 -15.9362 -44.9574 -157.124 0 0 0 
101 2 1 -19.2462 -43.1281 -157.568 0 0 0 
97 1 1 -21.8702 -43.2557 -164.347 0 0 0 
99 3 1 -22.5804 -35.6075 -163.257 0 0 0 
98 2 1 -22.879 -39.2969 -163.62 0 0 0 
100 1 1 -21.2247 -41.7517 -160.847 0 0 0 
103 1 1 -21.18 -38.4991 -158.578 0 0 0 
104 2 1 -24.2917 -35.893 -158.076 0 0 0 
106 1 1 -19.6355 -35.5924 -156.42 0 0 0 
105 3 1 -27.9497 -35.3594 -157.307 0 0 0 
108 3 1 -16.5897 -29.2495 -159.566 0 0 0 
107 2 1 -18.7851 -32.0561 -158.502 0 0 0 
109 1 1 -17.6222 -33.3663 -153.751 0 0 0 
112 1 1 -16.2195 -30.4868 -151.773 0 0 0 
113 2 1 -16.8234 -26.6685 -153.315 0 0 0 
114 3 1 -18.8413 -23.5461 -154.37 0 0 0 
115 1 1 -14.8542 -28.3824 -149.1 0 0 0 
110 2 1 -16.0206 -35.1209 -150.364 0 0 0 
111 3 1 -15.7247 -36.2016 -146.723 0 0 0 
129 3 1 -24.1751 -13.3538 -145.821 0 0 0 
116 2 1 -11.1272 -29.2262 -147.44 0 0 0 
117 3 1 -7.7803 -29.4013 -148.495 0 0 0 
120 3 1 -7.54825 -22.5784 -145.399 0 0 0 
118 1 1 -14.2654 -25.6132 -146.599 0 0 0 
119 2 1 -10.6284 -23.8649 -147.157 0 0 0 
122 2 1 -11.5213 -20.6538 -143.269 0 0 0 
121 1 1 -14.8926 -22.5586 -144.187 0 0 0 
124 1 1 -16.622 -19.7042 -142.205 0 0 0 
125 2 1 -16.1808 -19.9046 -138.265 0 0 0 
127 1 1 -18.898 -16.761 -141.453 0 0 0 
128 2 1 -21.284 -15.4313 -144.584 0 0 0 
131 2 1 -22.4735 -10.7654 -141.215 0 0 0 
132 3 1 -23.7355 -7.75159 -143.33 0 0 0 
130 1 1 -20.2101 -13.5193 -139.736 0 0 0 
133 1 1 -21.0541 -10.7821 -137.063 0 0 0 
126 3 1 -14.94 -20.9412 -135.072 0 0 0 
123 3 1 -9.3033 -17.6174 -143.887 0 0 0 
134 2 1 -22.5523 -7.04226 -136.982 0 0 0 
135 3 1 -23.5309 -3.61857 -138.238 0 0 0 
141 3 1 -22.6928 -13.5235 -123.325 0 0 0 
136 1 1 -21.429 -9.86151 -133.296 0 0 0 
139 1 1 -21.8816 -9.49856 -129.48 0 0 0 
140 2 1 -22.6418 -12.4767 -126.645 0 0 0 
142 1 1 -22.3017 -7.47753 -126.107 0 0 0 
138 3 1 -17.9222 -3.0182 -131.748 0 0 0 
137 2 1 -20.0818 -6.01673 -132.46 0 0 0 
144 3 1 -23.6336 -0.3644 -125.933 0 0 0 
147 3 1 -26.5181 -13.3262 -119.198 0 0 0 
146 2 1 -24.9624 -10.477 -120.548 0 0 0 
145 1 1 -22.7042 -7.45942 -122.387 0 0 0 
148 1 1 -22.0341 -6.83944 -118.553 0 0 0 
149 2 1 -18.7892 -5.0591 -117.691 0 0 0 
153 3 1 -22.2332 -14.0621 -113.692 0 0 0 
143 2 1 -22.4801 -4.03085 -125.605 0 0 0 
159 3 1 -27.3792 -10.2006 -103.981 0 0 0 
158 2 1 -24.2482 -9.21608 -105.195 0 0 0 
152 2 1 -22.4419 -10.4318 -112.681 0 0 0 
154 1 1 -21.5205 -6.01174 -110.979 0 0 0 
151 1 1 -22.0789 -6.89553 -114.692 0 0 0 
157 1 1 -22.2584 -6.27206 -107.131 0 0 0 
155 2 1 -19.4775 -2.71226 -109.907 0 0 0 
150 3 1 -16.3155 -2.18512 -117.065 0 0 0 
156 3 1 -17.5449 -3.18119 -106.878 0 0 0 
160 1 1 -21.9376 -5.99137 -103.287 0 0 0 
163 1 1 -22.5278 -7.03943 -99.6036 0 0 0 
164 2 1 -23.8373 -10.6587 -99.2831 0 0 0 
166 1 1 -23.0282 -7.59686 -95.8127 0 0 0 
161 2 1 -19.72 -3.13514 -101.469 0 0 0 
162 3 1 -16.6803 -1.37909 -100.23 0 0 0 
165 3 1 -26.1146 -13.0278 -97.3238 0 0 0 
171 3 1 -25.9125 -15.834 -93.2165 0 0 0 
169 1 1 -23.5858 -8.86139 -92.2478 0 0 0 
172 1 1 -23.4701 -9.08857 -88.3013 0 0 0 
170 2 1 -24.9565 -12.6953 -91.6898 0 0 0 
173 2 1 -21.6736 -6.93055 -85.5893 0 0 0 
167 2 1 -23.1594 -4.36352 -93.2863 0 0 0 
168 3 1 -21.4142 -0.893953 -93.3709 0 0 0 
180 3 1 -26.6457 -18.8308 -80.0069 0 0 0 
179 2 1 -26.8428 -15.1044 -80.7726 0 0 0 
181 1 1 -25.3745 -11.8369 -77.3919 0 0 0 
174 3 1 -20.6631 -4.15393 -83.6131 0 0 0 
176 2 1 -20.7407 -9.77571 -82.3195 0 0 0 
178 1 1 -25.0508 -12.0631 -81.3133 0 0 0 
175 1 1 -23.778 -10.5993 -84.7729 0 0 0 
177 3 1 -17.636 -10.2589 -80.1776 0 0 0 
185 2 1 -29.9124 -15.7559 -74.4652 0 0 0 
188 2 1 -32.0095 -14.4959 -69.6977 0 0 0 
187 1 1 -28.5043 -12.9688 -70.4773 0 0 0 
190 1 1 -28.7511 -13.0313 -66.556 0 0 0 
184 1 1 -27.1939 -12.8191 -74.1494 0 0 0 
186 3 1 -32.5926 -17.1592 -76.2698 0 0 0 
189 3 1 -34.082 -17.1848 -70.5649 0 0 0 
182 2 1 -23.4935 -9.49467 -74.8012 0 0 0 
183 3 1 -22.8686 -7.01421 -72.3047 0 0 0 
191 2 1 -30.9635 -14.6847 -64.2069 0 0 0 
197 2 1 -26.5415 -14.2855 -56.8457 0 0 0 
192 3 1 -33.8806 -14.9469 -61.9961 0 0 0 
196 1 1 -26.2802 -11.6966 -59.2291 0 0 0 
193 1 1 -27.2775 -12.2774 -62.9239 0 0 0 
195 3 1 -23.174 -5.8865 -62.4298 0 0 0 
194 2 1 -24.7803 -9.13191 -62.9504 0 0 0 
199 1 1 -25.1062 -10.4475 -55.593 0 0 0 
198 3 1 -24.5287 -16.9278 -55.2534 0 0 0 
203 2 1 -24.2609 -13.3363 -49.7843 0 0 0 
204 3 1 -23.3188 -16.6357 -49.0529 0 0 0 
206 2 1 -22.7599 -12.5138 -45.6612 0 0 0 
201 3 1 -22.7463 -3.21352 -54.5114 0 0 0 
200 2 1 -24.4429 -6.74219 -54.9364 0 0 0 
202 1 1 -23.7384 -9.92067 -51.8362 0 0 0 
205 1 1 -21.9565 -9.62048 -48.4765 0 0 0 
207 3 1 -25.0945 -14.6278 -43.7344 0 0 0 
215 2 1 -17.7403 -6.16993 -36.5412 0 0 0 
212 2 1 -15.8417 -3.28701 -44.27 0 0 0 
208 1 1 -19.9383 -8.05561 -45.5459 0 0 0 
211 1 1 -17.787 -5.8861 -43.0199 0 0 0 
214 1 1 -15.8156 -4.48519 -39.9037 0 0 0 
209 2 1 -20.3287 -10.1456 -42.0078 0 0 0 
210 3 1 -18.8646 -11.7148 -38.9092 0 0 0 
213 3 1 -14.0887 -2.04593 -47.4621 0 0 0 
217 1 1 -13.9627 -3.38967 -36.6821 0 0 0 
218 2 1 -12.0423 -0.517006 -36.0923 0 0 0 
219 3 1 -10.6394 2.65297 -34.652 0 0 0 
216 3 1 -18.9151 -9.21977 -34.3221 0 0 0 