ITEM: TIMESTEP
0
ITEM: NUMBER OF ATOMS
558
ITEM: BOX BOUNDS pp pp pp
-736.806 736.806
-736.806 736.806
-736.806 736.806
ITEM: ATOMS id type mol x y z ix iy iz 
1 1 1 -54.2152 -67.5299 -325.969 0 0 0 
2 2 1 -57.6047 -67.5884 -324.098 0 0 0 
3 3 1 -61.0508 -68.2943 -322.856 0 0 0 
8 2 1 -56.4337 -66.118 -317.061 0 0 0 
9 3 1 -59.8797 -66.8239 -315.819 0 0 0 
4 1 1 -53.6297 -66.7947 -322.451 0 0 0 
5 2 1 -50.1022 -67.7339 -323.349 0 0 0 
6 3 1 -46.515 -68.7048 -322.523 0 0 0 
7 1 1 -53.0441 -66.0596 -318.932 0 0 0 
11 2 1 -48.9311 -66.2636 -316.312 0 0 0 
15 3 1 -58.7087 -65.3536 -308.782 0 0 0 
10 1 1 -52.4586 -65.3244 -315.414 0 0 0 
12 3 1 -45.3439 -67.2344 -315.487 0 0 0 
18 3 1 -44.1729 -65.7641 -308.45 0 0 0 
14 2 1 -55.2626 -64.6477 -310.024 0 0 0 
13 1 1 -51.8731 -64.5892 -311.896 0 0 0 
16 1 1 -51.2876 -63.8541 -308.377 0 0 0 
17 2 1 -47.7601 -64.7932 -309.275 0 0 0 
21 3 1 -57.5376 -63.8833 -301.745 0 0 0 
19 1 1 -50.702 -63.1189 -304.859 0 0 0 
20 2 1 -54.0915 -63.1774 -302.988 0 0 0 
22 1 1 -50.1165 -62.3837 -301.34 0 0 0 
23 2 1 -46.589 -63.3229 -302.238 0 0 0 
25 1 1 -49.531 -61.6486 -297.822 0 0 0 
26 2 1 -52.9205 -61.7071 -295.951 0 0 0 
24 3 1 -43.0018 -64.2938 -301.413 0 0 0 
27 3 1 -56.3665 -62.413 -294.708 0 0 0 
33 3 1 -55.1955 -60.9427 -287.672 0 0 0 
28 1 1 -48.9454 -60.9134 -294.304 0 0 0 
29 2 1 -45.418 -61.8526 -295.201 0 0 0 
31 1 1 -48.3599 -60.1782 -290.785 0 0 0 
32 2 1 -51.7494 -60.2367 -288.914 0 0 0 
34 1 1 -47.7744 -59.4431 -287.267 0 0 0 
30 3 1 -41.8307 -62.8235 -294.376 0 0 0 
35 2 1 -44.2469 -60.3823 -288.164 0 0 0 
36 3 1 -40.6597 -61.3531 -287.339 0 0 0 
37 1 1 -47.1888 -58.7079 -283.748 0 0 0 
38 2 1 -50.5784 -58.7664 -281.877 0 0 0 
39 3 1 -54.0244 -59.4723 -280.635 0 0 0 
40 1 1 -46.6033 -57.9727 -280.23 0 0 0 
43 1 1 -46.0178 -57.2376 -276.712 0 0 0 
41 2 1 -43.0758 -58.9119 -281.128 0 0 0 
42 3 1 -39.4886 -59.8828 -280.303 0 0 0 
44 2 1 -49.4073 -57.2961 -274.84 0 0 0 
45 3 1 -52.8534 -58.002 -273.598 0 0 0 
46 1 1 -45.4322 -56.5024 -273.193 0 0 0 
50 2 1 -48.2362 -55.8257 -267.803 0 0 0 
51 3 1 -51.6823 -56.5317 -266.561 0 0 0 
47 2 1 -41.9048 -57.4416 -274.091 0 0 0 
48 3 1 -38.3176 -58.4125 -273.266 0 0 0 
49 1 1 -44.8467 -55.7673 -269.675 0 0 0 
53 2 1 -40.7337 -55.9713 -267.054 0 0 0 
54 3 1 -37.1465 -56.9421 -266.229 0 0 0 
52 1 1 -44.2612 -55.0321 -266.156 0 0 0 
60 3 1 -35.9754 -55.4718 -259.192 0 0 0 
56 2 1 -47.0652 -54.3554 -260.767 0 0 0 
57 3 1 -50.5112 -55.0613 -259.524 0 0 0 
55 1 1 -43.6756 -54.2969 -262.638 0 0 0 
58 1 1 -43.0901 -53.5618 -259.12 0 0 0 
59 2 1 -39.5626 -54.501 -260.017 0 0 0 
62 2 1 -45.8941 -52.8851 -253.73 0 0 0 
63 3 1 -49.3402 -53.591 -252.488 0 0 0 
61 1 1 -42.5046 -52.8266 -255.601 0 0 0 
64 1 1 -41.9191 -52.0914 -252.083 0 0 0 
65 2 1 -38.3916 -53.0306 -252.981 0 0 0 
67 1 1 -41.3335 -51.3563 -248.564 0 0 0 
68 2 1 -44.723 -51.4148 -246.693 0 0 0 
71 2 1 -37.2205 -51.5603 -245.944 0 0 0 
66 3 1 -34.8044 -54.0015 -252.155 0 0 0 
69 3 1 -48.1691 -52.1207 -245.451 0 0 0 
75 3 1 -46.998 -50.6504 -238.414 0 0 0 
70 1 1 -40.748 -50.6211 -245.046 0 0 0 
73 1 1 -40.1625 -49.886 -241.528 0 0 0 
74 2 1 -43.552 -49.9444 -239.656 0 0 0 
76 1 1 -39.5769 -49.1508 -238.009 0 0 0 
77 2 1 -36.0495 -50.09 -238.907 0 0 0 
72 3 1 -33.6333 -52.5312 -245.119 0 0 0 
78 3 1 -32.4622 -51.0608 -238.082 0 0 0 
81 3 1 -45.827 -49.18 -231.377 0 0 0 
79 1 1 -38.9914 -48.4156 -234.491 0 0 0 
80 2 1 -42.3809 -48.4741 -232.619 0 0 0 
82 1 1 -38.4059 -47.6805 -230.972 0 0 0 
85 1 1 -37.8203 -46.9453 -227.454 0 0 0 
86 2 1 -41.2099 -47.0038 -225.583 0 0 0 
83 2 1 -34.8784 -48.6197 -231.87 0 0 0 
84 3 1 -31.2912 -49.5905 -231.045 0 0 0 
87 3 1 -44.6559 -47.7097 -224.34 0 0 0 
88 1 1 -37.2348 -46.2101 -223.936 0 0 0 
91 1 1 -36.6493 -45.475 -220.417 0 0 0 
92 2 1 -40.0388 -45.5335 -218.546 0 0 0 
93 3 1 -43.4849 -46.2394 -217.304 0 0 0 
89 2 1 -33.7073 -47.1493 -224.833 0 0 0 
90 3 1 -30.1201 -48.1202 -224.008 0 0 0 
95 2 1 -32.5363 -45.679 -217.797 0 0 0 
96 3 1 -28.9491 -46.6499 -216.971 0 0 0 
94 1 1 -36.0637 -44.7398 -216.899 0 0 0 
102 3 1 -27.778 -45.1795 -209.935 0 0 0 
97 1 1 -35.4782 -44.0046 -213.38 0 0 0 
98 2 1 -38.8677 -44.0631 -211.509 0 0 0 
99 3 1 -42.3138 -44.7691 -210.267 0 0 0 
100 1 1 -34.8927 -43.2695 -209.862 0 0 0 
101 2 1 -31.3652 -44.2087 -210.76 0 0 0 
103 1 1 -34.3072 -42.5343 -206.344 0 0 0 
104 2 1 -37.6967 -42.5928 -204.472 0 0 0 
105 3 1 -41.1427 -43.2987 -203.23 0 0 0 
110 2 1 -36.5256 -41.1225 -197.435 0 0 0 
111 3 1 -39.9717 -41.8284 -196.193 0 0 0 
106 1 1 -33.7216 -41.7991 -202.825 0 0 0 
107 2 1 -30.1942 -42.7383 -203.723 0 0 0 
108 3 1 -26.6069 -43.7092 -202.898 0 0 0 
109 1 1 -33.1361 -41.064 -199.307 0 0 0 
112 1 1 -32.5506 -40.3288 -195.788 0 0 0 
113 2 1 -29.0231 -41.268 -196.686 0 0 0 
114 3 1 -25.4359 -42.2389 -195.861 0 0 0 
116 2 1 -35.3546 -39.6521 -190.399 0 0 0 
117 3 1 -38.8006 -40.3581 -189.156 0 0 0 
115 1 1 -31.965 -39.5937 -192.27 0 0 0 
118 1 1 -31.3795 -38.8585 -188.752 0 0 0 
119 2 1 -27.852 -39.7977 -189.649 0 0 0 
120 3 1 -24.2648 -40.7685 -188.824 0 0 0 
123 3 1 -37.6296 -38.8877 -182.12 0 0 0 
121 1 1 -30.794 -38.1233 -185.233 0 0 0 
122 2 1 -34.1835 -38.1818 -183.362 0 0 0 
124 1 1 -30.2084 -37.3882 -181.715 0 0 0 
125 2 1 -26.681 -38.3274 -182.613 0 0 0 
127 1 1 -29.6229 -36.653 -178.196 0 0 0 
128 2 1 -33.0124 -36.7115 -176.325 0 0 0 
131 2 1 -25.5099 -36.857 -175.576 0 0 0 
126 3 1 -23.0938 -39.2982 -181.787 0 0 0 
129 3 1 -36.4585 -37.4174 -175.083 0 0 0 
135 3 1 -35.2874 -35.9471 -168.046 0 0 0 
130 1 1 -29.0374 -35.9178 -174.678 0 0 0 
133 1 1 -28.4519 -35.1827 -171.16 0 0 0 
134 2 1 -31.8414 -35.2412 -169.288 0 0 0 
132 3 1 -21.9227 -37.8279 -174.75 0 0 0 
137 2 1 -24.3389 -35.3867 -168.539 0 0 0 
138 3 1 -20.7516 -36.3576 -167.714 0 0 0 
136 1 1 -27.8663 -34.4475 -167.641 0 0 0 
139 1 1 -27.2808 -33.7124 -164.123 0 0 0 
140 2 1 -30.6703 -33.7708 -162.251 0 0 0 
141 3 1 -34.1164 -34.4768 -161.009 0 0 0 
142 1 1 -26.6953 -32.9772 -160.604 0 0 0 
145 1 1 -26.1097 -32.242 -157.086 0 0 0 
143 2 1 -23.1678 -33.9164 -161.502 0 0 0 
144 3 1 -19.5806 -34.8872 -160.677 0 0 0 
146 2 1 -29.4992 -32.3005 -155.215 0 0 0 
147 3 1 -32.9453 -33.0064 -153.972 0 0 0 
148 1 1 -25.5242 -31.5069 -153.568 0 0 0 
152 2 1 -28.3282 -30.8302 -148.178 0 0 0 
153 3 1 -31.7742 -31.5361 -146.936 0 0 0 
149 2 1 -21.9967 -32.446 -154.465 0 0 0 
150 3 1 -18.4095 -33.4169 -153.64 0 0 0 
151 1 1 -24.9387 -30.7717 -150.049 0 0 0 
154 1 1 -24.3531 -30.0365 -146.531 0 0 0 
155 2 1 -20.8257 -30.9757 -147.429 0 0 0 
156 3 1 -17.2385 -31.9466 -146.603 0 0 0 
158 2 1 -27.1571 -29.3599 -141.141 0 0 0 
159 3 1 -30.6032 -30.0658 -139.899 0 0 0 
157 1 1 -23.7676 -29.3014 -143.012 0 0 0 
160 1 1 -23.1821 -28.5662 -139.494 0 0 0 
161 2 1 -19.6546 -29.5054 -140.392 0 0 0 
162 3 1 -16.0674 -30.4763 -139.566 0 0 0 
163 1 1 -22.5965 -27.831 -135.976 0 0 0 
164 2 1 -25.9861 -27.8895 -134.104 0 0 0 
165 3 1 -29.4321 -28.5954 -132.862 0 0 0 
171 3 1 -28.2611 -27.1251 -125.825 0 0 0 
166 1 1 -22.011 -27.0959 -132.457 0 0 0 
167 2 1 -18.4836 -28.0351 -133.355 0 0 0 
169 1 1 -21.4255 -26.3607 -128.939 0 0 0 
170 2 1 -24.815 -26.4192 -127.067 0 0 0 
172 1 1 -20.84 -25.6256 -125.42 0 0 0 
173 2 1 -17.3125 -26.5647 -126.318 0 0 0 
168 3 1 -14.8963 -29.0059 -132.53 0 0 0 
174 3 1 -13.7253 -27.5356 -125.493 0 0 0 
177 3 1 -27.09 -25.6548 -118.788 0 0 0 
179 2 1 -16.1414 -25.0944 -119.281 0 0 0 
180 3 1 -12.5542 -26.0653 -118.456 0 0 0 
175 1 1 -20.2544 -24.8904 -121.902 0 0 0 
176 2 1 -23.6439 -24.9489 -120.031 0 0 0 
178 1 1 -19.6689 -24.1552 -118.384 0 0 0 
183 3 1 -25.9189 -24.1845 -111.752 0 0 0 
181 1 1 -19.0834 -23.4201 -114.865 0 0 0 
182 2 1 -22.4729 -23.4785 -112.994 0 0 0 
184 1 1 -18.4978 -22.6849 -111.347 0 0 0 
187 1 1 -17.9123 -21.9497 -107.828 0 0 0 
188 2 1 -21.3018 -22.0082 -105.957 0 0 0 
185 2 1 -14.9704 -23.6241 -112.245 0 0 0 
186 3 1 -11.3831 -24.595 -111.419 0 0 0 
189 3 1 -24.7479 -22.7141 -104.715 0 0 0 
190 1 1 -17.3268 -21.2146 -104.31 0 0 0 
193 1 1 -16.7412 -20.4794 -100.792 0 0 0 
194 2 1 -20.1307 -20.5379 -98.9203 0 0 0 
195 3 1 -23.5768 -21.2438 -97.6781 0 0 0 
196 1 1 -16.1557 -19.7443 -97.2732 0 0 0 
191 2 1 -13.7993 -22.1538 -105.208 0 0 0 
192 3 1 -10.2121 -23.1246 -104.382 0 0 0 
197 2 1 -12.6282 -20.6834 -98.1709 0 0 0 
198 3 1 -9.04103 -21.6543 -97.3458 0 0 0 
199 1 1 -15.5702 -19.0091 -93.7548 0 0 0 
200 2 1 -18.9597 -19.0676 -91.8835 0 0 0 
201 3 1 -22.4058 -19.7735 -90.6412 0 0 0 
202 1 1 -14.9846 -18.2739 -90.2364 0 0 0 
203 2 1 -11.4572 -19.2131 -91.1341 0 0 0 
204 3 1 -7.86996 -20.184 -90.309 0 0 0 
205 1 1 -14.3991 -17.5388 -86.718 0 0 0 
206 2 1 -17.7886 -17.5972 -84.8467 0 0 0 
207 3 1 -21.2347 -18.3032 -83.6044 0 0 0 
212 2 1 -16.6176 -16.1269 -77.8099 0 0 0 
213 3 1 -20.0636 -16.8328 -76.5677 0 0 0 
208 1 1 -13.8136 -16.8036 -83.1996 0 0 0 
209 2 1 -10.2861 -17.7428 -84.0973 0 0 0 
210 3 1 -6.6989 -18.7136 -83.2722 0 0 0 
211 1 1 -13.228 -16.0684 -79.6812 0 0 0 
214 1 1 -12.6425 -15.3333 -76.1628 0 0 0 
215 2 1 -9.11506 -16.2724 -77.0605 0 0 0 
216 3 1 -5.52784 -17.2433 -76.2353 0 0 0 
219 3 1 -18.8926 -15.3625 -69.5309 0 0 0 
222 3 1 -4.35678 -15.773 -69.1985 0 0 0 
218 2 1 -15.4465 -14.6566 -70.7731 0 0 0 
217 1 1 -12.057 -14.5981 -72.6444 0 0 0 
220 1 1 -11.4715 -13.8629 -69.126 0 0 0 
221 2 1 -7.944 -14.8021 -70.0237 0 0 0 
223 1 1 -10.8859 -13.1278 -65.6076 0 0 0 
225 3 1 -17.7215 -13.8922 -62.4941 0 0 0 
231 3 1 -16.5505 -12.4218 -55.4573 0 0 0 
224 2 1 -14.2754 -13.1863 -63.7363 0 0 0 
226 1 1 -10.3004 -12.3926 -62.0892 0 0 0 
227 2 1 -6.77294 -13.3318 -62.9869 0 0 0 
229 1 1 -9.71487 -11.6575 -58.5708 0 0 0 
230 2 1 -13.1044 -11.7159 -56.6995 0 0 0 
233 2 1 -5.60187 -11.8615 -55.9501 0 0 0 
228 3 1 -3.18572 -14.3027 -62.1617 0 0 0 
237 3 1 -15.3794 -10.9515 -48.4205 0 0 0 
232 1 1 -9.12934 -10.9223 -55.0524 0 0 0 
235 1 1 -8.54381 -10.1871 -51.534 0 0 0 
236 2 1 -11.9333 -10.2456 -49.6627 0 0 0 
238 1 1 -7.95828 -9.45196 -48.0156 0 0 0 
234 3 1 -2.01466 -12.8323 -55.1249 0 0 0 
239 2 1 -4.43081 -10.3911 -48.9133 0 0 0 
240 3 1 -0.843596 -11.362 -48.0881 0 0 0 
241 1 1 -7.37275 -8.7168 -44.4972 0 0 0 
242 2 1 -10.7623 -8.77528 -42.6259 0 0 0 
243 3 1 -14.2083 -9.4812 -41.3836 0 0 0 
244 1 1 -6.78722 -7.98163 -40.9788 0 0 0 
247 1 1 -6.20169 -7.24647 -37.4604 0 0 0 
248 2 1 -9.59121 -7.30495 -35.5891 0 0 0 
245 2 1 -3.25975 -8.92082 -41.8765 0 0 0 
246 3 1 0.327464 -9.89168 -41.0513 0 0 0 
249 3 1 -13.0373 -8.01088 -34.3468 0 0 0 
250 1 1 -5.61616 -6.51131 -33.942 0 0 0 
253 1 1 -5.03063 -5.77614 -30.4236 0 0 0 
254 2 1 -8.42014 -5.83463 -28.5523 0 0 0 
255 3 1 -11.8662 -6.54055 -27.31 0 0 0 
251 2 1 -2.08869 -7.45049 -34.8397 0 0 0 
252 3 1 1.49853 -8.42135 -34.0145 0 0 0 
256 1 1 -4.4451 -5.04098 -26.9052 0 0 0 
257 2 1 -0.91763 -5.98017 -27.8029 0 0 0 
258 3 1 2.66959 -6.95103 -26.9778 0 0 0 
261 3 1 -10.6951 -5.07022 -20.2732 0 0 0 
264 3 1 3.84065 -5.4807 -19.9409 0 0 0 
260 2 1 -7.24908 -4.3643 -21.5155 0 0 0 
259 1 1 -3.85956 -4.30582 -23.3868 0 0 0 
262 1 1 -3.27403 -3.57065 -19.8684 0 0 0 
263 2 1 0.253431 -4.50984 -20.7661 0 0 0 
265 1 1 -2.6885 -2.83549 -16.35 0 0 0 
266 2 1 -6.07802 -2.89397 -14.4787 0 0 0 
267 3 1 -9.52409 -3.5999 -13.2364 0 0 0 
273 3 1 -8.35303 -2.12957 -6.19964 0 0 0 
268 1 1 -2.10297 -2.10033 -12.8316 0 0 0 
269 2 1 1.42449 -3.03951 -13.7293 0 0 0 
270 3 1 5.01171 -4.01037 -12.9041 0 0 0 
271 1 1 -1.51744 -1.36516 -9.31319 0 0 0 
272 2 1 -4.90696 -1.42365 -7.44193 0 0 0 
274 1 1 -0.931911 -0.629998 -5.79479 0 0 0 
275 2 1 2.59555 -1.56918 -6.69249 0 0 0 
276 3 1 6.18277 -2.54004 -5.86735 0 0 0 
279 3 1 -7.18197 -0.659241 0.837158 0 0 0 
277 1 1 -0.34638 0.105164 -2.27638 0 0 0 
278 2 1 -3.7359 0.046681 -0.405124 0 0 0 
280 1 1 0.23915 0.840328 1.24202 0 0 0 
281 2 1 3.76661 -0.098857 0.344313 0 0 0 
283 1 1 0.82468 1.57549 4.76042 0 0 0 
282 3 1 7.35383 -1.06972 1.16945 0 0 0 
285 3 1 -6.01091 0.811085 7.87396 0 0 0 
284 2 1 -2.56484 1.51701 6.63168 0 0 0 
286 1 1 1.41021 2.31066 8.27882 0 0 0 
287 2 1 4.93768 1.37147 7.38111 0 0 0 
289 1 1 1.99574 3.04582 11.7972 0 0 0 
290 2 1 -1.39377 2.98733 13.6685 0 0 0 
291 3 1 -4.83985 2.28141 14.9108 0 0 0 
288 3 1 8.52489 0.400609 8.20626 0 0 0 
293 2 1 6.10874 2.8418 14.4179 0 0 0 
292 1 1 2.58127 3.78098 15.3156 0 0 0 
295 1 1 3.1668 4.51615 18.834 0 0 0 
296 2 1 -0.222713 4.45766 20.7053 0 0 0 
297 3 1 -3.66878 3.75174 21.9476 0 0 0 
294 3 1 9.69595 1.87094 15.2431 0 0 0 
299 2 1 7.2798 4.31212 21.4547 0 0 0 
300 3 1 10.867 3.34126 22.2798 0 0 0 
298 1 1 3.75233 5.25131 22.3524 0 0 0 
306 3 1 12.0381 4.81159 29.3167 0 0 0 
301 1 1 4.33786 5.98647 25.8708 0 0 0 
302 2 1 0.948347 5.92799 27.7421 0 0 0 
303 3 1 -2.49772 5.22207 28.9844 0 0 0 
304 1 1 4.9234 6.72164 29.3892 0 0 0 
308 2 1 2.11941 7.39832 34.7789 0 0 0 
305 2 1 8.45086 5.78245 28.4915 0 0 0 
307 1 1 5.50893 7.4568 32.9076 0 0 0 
309 3 1 -1.32666 6.69239 36.0212 0 0 0 
314 2 1 3.29047 8.86864 41.8157 0 0 0 
315 3 1 -0.155599 8.16272 43.058 0 0 0 
310 1 1 6.09446 8.19196 36.426 0 0 0 
311 2 1 9.62192 7.25278 35.5283 0 0 0 
312 3 1 13.2091 6.28192 36.3535 0 0 0 
313 1 1 6.67999 8.92713 39.9444 0 0 0 
316 1 1 7.26552 9.66229 43.4628 0 0 0 
317 2 1 10.793 8.72311 42.5651 0 0 0 
318 3 1 14.3802 7.75224 43.3903 0 0 0 
320 2 1 4.46153 10.339 48.8525 0 0 0 
321 3 1 1.01546 9.63305 50.0948 0 0 0 
319 1 1 7.85105 10.3974 46.9812 0 0 0 
322 1 1 8.43658 11.1326 50.4996 0 0 0 
323 2 1 11.964 10.1934 49.6019 0 0 0 
325 1 1 9.02211 11.8678 54.018 0 0 0 
324 3 1 15.5513 9.22257 50.4271 0 0 0 
327 3 1 2.18652 11.1034 57.1316 0 0 0 
333 3 1 3.35758 12.5737 64.1684 0 0 0 
326 2 1 5.63259 11.8093 55.8893 0 0 0 
328 1 1 9.60764 12.6029 57.5364 0 0 0 
329 2 1 13.1351 11.6638 56.6387 0 0 0 
331 1 1 10.1932 13.3381 61.0548 0 0 0 
332 2 1 6.80365 13.2796 62.9261 0 0 0 
334 1 1 10.7787 14.0733 64.5732 0 0 0 
335 2 1 14.3062 13.1341 63.6755 0 0 0 
330 3 1 16.7223 10.6929 57.4639 0 0 0 
336 3 1 17.8934 12.1632 64.5007 0 0 0 
339 3 1 4.52865 14.044 71.2052 0 0 0 
337 1 1 11.3642 14.8084 68.0916 0 0 0 
338 2 1 7.97472 14.75 69.9629 0 0 0 
341 2 1 15.4772 14.6044 70.7123 0 0 0 
342 3 1 19.0644 13.6335 71.5375 0 0 0 
340 1 1 11.9498 15.5436 71.61 0 0 0 
343 1 1 12.5353 16.2788 75.1284 0 0 0 
344 2 1 9.14578 16.2203 76.9997 0 0 0 
345 3 1 5.69971 15.5144 78.242 0 0 0 
346 1 1 13.1208 17.0139 78.6468 0 0 0 
349 1 1 13.7064 17.7491 82.1652 0 0 0 
350 2 1 10.3168 17.6906 84.0365 0 0 0 
347 2 1 16.6483 16.0747 77.7491 0 0 0 
348 3 1 20.2355 15.1039 78.5743 0 0 0 
353 2 1 17.8194 17.5451 84.7859 0 0 0 
351 3 1 6.87077 16.9847 85.2788 0 0 0 
352 1 1 14.2919 18.4842 85.6836 0 0 0 
355 1 1 14.8774 19.2194 89.202 0 0 0 
356 2 1 11.4879 19.1609 91.0733 0 0 0 
357 3 1 8.04183 18.455 92.3156 0 0 0 
354 3 1 21.4066 16.5742 85.6111 0 0 0 
358 1 1 15.4629 19.9546 92.7204 0 0 0 
359 2 1 18.9904 19.0154 91.8227 0 0 0 
360 3 1 22.5776 18.0445 92.6479 0 0 0 
362 2 1 12.659 20.6313 98.1101 0 0 0 
363 3 1 9.21289 19.9253 99.3524 0 0 0 
368 2 1 13.83 22.1016 105.147 0 0 0 
361 1 1 16.0485 20.6897 96.2388 0 0 0 
364 1 1 16.634 21.4249 99.7572 0 0 0 
365 2 1 20.1615 20.4857 98.8595 0 0 0 
366 3 1 23.7487 19.5149 99.6847 0 0 0 
367 1 1 17.2195 22.1601 103.276 0 0 0 
369 3 1 10.384 21.3957 106.389 0 0 0 
374 2 1 15.0011 23.5719 112.184 0 0 0 
375 3 1 11.555 22.866 113.426 0 0 0 
370 1 1 17.8051 22.8952 106.794 0 0 0 
371 2 1 21.3325 21.956 105.896 0 0 0 
372 3 1 24.9198 20.9852 106.721 0 0 0 
373 1 1 18.3906 23.6304 110.312 0 0 0 
376 1 1 18.9761 24.3656 113.831 0 0 0 
377 2 1 22.5036 23.4264 112.933 0 0 0 
378 3 1 26.0908 22.4555 113.758 0 0 0 
381 3 1 12.7261 24.3363 120.463 0 0 0 
380 2 1 16.1721 25.0422 119.22 0 0 0 
383 2 1 23.6747 24.8967 119.97 0 0 0 
384 3 1 27.2619 23.9258 120.795 0 0 0 
379 1 1 19.5617 25.1007 117.349 0 0 0 
382 1 1 20.1472 25.8359 120.868 0 0 0 
385 1 1 20.7327 26.571 124.386 0 0 0 
387 3 1 13.8971 25.8066 127.499 0 0 0 
386 2 1 17.3432 26.5126 126.257 0 0 0 
388 1 1 21.3182 27.3062 127.904 0 0 0 
389 2 1 24.8457 26.367 127.007 0 0 0 
391 1 1 21.9038 28.0414 131.423 0 0 0 
392 2 1 18.5143 27.9829 133.294 0 0 0 
393 3 1 15.0682 27.277 134.536 0 0 0 
394 1 1 22.4893 28.7765 134.941 0 0 0 
390 3 1 28.4329 25.3962 127.832 0 0 0 
395 2 1 26.0168 27.8374 134.043 0 0 0 
396 3 1 29.604 26.8665 134.869 0 0 0 
397 1 1 23.0748 29.5117 138.46 0 0 0 
398 2 1 19.6853 29.4532 140.331 0 0 0 
399 3 1 16.2393 28.7473 141.573 0 0 0 
400 1 1 23.6604 30.2469 141.978 0 0 0 
401 2 1 27.1878 29.3077 141.08 0 0 0 
402 3 1 30.7751 28.3368 141.905 0 0 0 
403 1 1 24.2459 30.982 145.496 0 0 0 
404 2 1 20.8564 30.9235 147.368 0 0 0 
405 3 1 17.4103 30.2176 148.61 0 0 0 
406 1 1 24.8314 31.7172 149.015 0 0 0 
410 2 1 22.0275 32.3939 154.405 0 0 0 
407 2 1 28.3589 30.778 148.117 0 0 0 
408 3 1 31.9461 29.8072 148.942 0 0 0 
409 1 1 25.417 32.4524 152.533 0 0 0 
413 2 1 29.53 32.2483 155.154 0 0 0 
411 3 1 18.5814 31.688 155.647 0 0 0 
416 2 1 23.1985 33.8642 161.441 0 0 0 
417 3 1 19.7524 33.1583 162.684 0 0 0 
412 1 1 26.0025 33.1875 156.052 0 0 0 
414 3 1 33.1172 31.2775 155.979 0 0 0 
415 1 1 26.588 33.9227 159.57 0 0 0 
418 1 1 27.1736 34.6579 163.088 0 0 0 
419 2 1 30.701 33.7187 162.191 0 0 0 
420 3 1 34.2882 32.7478 163.016 0 0 0 
423 3 1 20.9235 34.6286 169.72 0 0 0 
426 3 1 35.4593 34.2181 170.053 0 0 0 
422 2 1 24.3696 35.3345 168.478 0 0 0 
421 1 1 27.7591 35.393 166.607 0 0 0 
424 1 1 28.3446 36.1282 170.125 0 0 0 
425 2 1 31.8721 35.189 169.227 0 0 0 
427 1 1 28.9302 36.8633 173.644 0 0 0 
429 3 1 22.0946 36.0989 176.757 0 0 0 
435 3 1 23.2656 37.5693 183.794 0 0 0 
428 2 1 25.5406 36.8049 175.515 0 0 0 
430 1 1 29.5157 37.5985 177.162 0 0 0 
431 2 1 33.0431 36.6593 176.264 0 0 0 
433 1 1 30.1012 38.3337 180.68 0 0 0 
434 2 1 26.7117 38.2752 182.552 0 0 0 
436 1 1 30.6867 39.0688 184.199 0 0 0 
437 2 1 34.2142 38.1296 183.301 0 0 0 
432 3 1 36.6304 35.6885 177.089 0 0 0 
438 3 1 37.8014 37.1588 184.126 0 0 0 
441 3 1 24.4367 39.0396 190.831 0 0 0 
439 1 1 31.2723 39.804 187.717 0 0 0 
440 2 1 27.8828 39.7455 189.589 0 0 0 
442 1 1 31.8578 40.5391 191.236 0 0 0 
445 1 1 32.4433 41.2743 194.754 0 0 0 
443 2 1 35.3853 39.6 190.338 0 0 0 
444 3 1 38.9725 38.6291 191.163 0 0 0 
446 2 1 29.0538 41.2158 196.625 0 0 0 
447 3 1 25.6077 40.5099 197.868 0 0 0 
448 1 1 33.0289 42.0095 198.272 0 0 0 
451 1 1 33.6144 42.7446 201.791 0 0 0 
452 2 1 30.2249 42.6862 203.662 0 0 0 
453 3 1 26.7788 41.9802 204.904 0 0 0 
454 1 1 34.1999 43.4798 205.309 0 0 0 
449 2 1 36.5563 41.0703 197.375 0 0 0 
450 3 1 40.1435 40.0994 198.2 0 0 0 
455 2 1 37.7274 42.5406 204.411 0 0 0 
456 3 1 41.3146 41.5698 205.237 0 0 0 
457 1 1 34.7855 44.215 208.828 0 0 0 
458 2 1 31.3959 44.1565 210.699 0 0 0 
459 3 1 27.9499 43.4506 211.941 0 0 0 
460 1 1 35.371 44.9501 212.346 0 0 0 
461 2 1 38.8984 44.011 211.448 0 0 0 
462 3 1 42.4857 43.0401 212.273 0 0 0 
465 3 1 29.1209 44.9209 218.978 0 0 0 
468 3 1 43.6567 44.5104 219.31 0 0 0 
464 2 1 32.567 45.6268 217.736 0 0 0 
470 2 1 33.7381 47.0971 224.773 0 0 0 
463 1 1 35.9565 45.6853 215.864 0 0 0 
466 1 1 36.5421 46.4205 219.383 0 0 0 
467 2 1 40.0695 45.4813 218.485 0 0 0 
469 1 1 37.1276 47.1556 222.901 0 0 0 
473 2 1 41.2406 46.9516 225.522 0 0 0 
471 3 1 30.292 46.3912 226.015 0 0 0 
476 2 1 34.9091 48.5675 231.809 0 0 0 
477 3 1 31.463 47.8616 233.052 0 0 0 
472 1 1 37.7131 47.8908 226.42 0 0 0 
474 3 1 44.8278 45.9807 226.347 0 0 0 
475 1 1 38.2986 48.626 229.938 0 0 0 
478 1 1 38.8842 49.3611 233.456 0 0 0 
479 2 1 42.4116 48.4219 232.559 0 0 0 
480 3 1 45.9989 47.4511 233.384 0 0 0 
483 3 1 32.6341 49.3319 240.088 0 0 0 
481 1 1 39.4697 50.0963 236.975 0 0 0 
482 2 1 36.0802 50.0378 238.846 0 0 0 
484 1 1 40.0552 50.8314 240.493 0 0 0 
485 2 1 43.5827 49.8923 239.595 0 0 0 
487 1 1 40.6408 51.5666 244.012 0 0 0 
486 3 1 47.1699 48.9214 240.421 0 0 0 
489 3 1 33.8052 50.8022 247.125 0 0 0 
495 3 1 34.9762 52.2725 254.162 0 0 0 
488 2 1 37.2512 51.5081 245.883 0 0 0 
490 1 1 41.2263 52.3018 247.53 0 0 0 
491 2 1 44.7538 51.3626 246.632 0 0 0 
493 1 1 41.8118 53.0369 251.048 0 0 0 
494 2 1 38.4223 52.9785 252.92 0 0 0 
496 1 1 42.3974 53.7721 254.567 0 0 0 
492 3 1 48.341 50.3917 247.458 0 0 0 
497 2 1 45.9248 52.8329 253.669 0 0 0 
498 3 1 49.512 51.8621 254.494 0 0 0 
499 1 1 42.9829 54.5073 258.085 0 0 0 
500 2 1 39.5934 54.4488 259.957 0 0 0 
501 3 1 36.1473 53.7428 261.199 0 0 0 
503 2 1 47.0959 54.3032 260.706 0 0 0 
504 3 1 50.6831 53.3324 261.531 0 0 0 
502 1 1 43.5684 55.2424 261.604 0 0 0 
505 1 1 44.154 55.9776 265.122 0 0 0 
510 3 1 51.8542 54.8027 268.568 0 0 0 
506 2 1 40.7644 55.9191 266.993 0 0 0 
507 3 1 37.3184 55.2132 268.236 0 0 0 
508 1 1 44.7395 56.7127 268.64 0 0 0 
512 2 1 41.9355 57.3894 274.03 0 0 0 
513 3 1 38.4894 56.6835 275.272 0 0 0 
509 2 1 48.267 55.7736 267.743 0 0 0 
511 1 1 45.325 57.4479 272.159 0 0 0 
515 2 1 49.438 57.2439 274.779 0 0 0 
516 3 1 53.0252 56.273 275.605 0 0 0 
518 2 1 43.1065 58.8598 281.067 0 0 0 
519 3 1 39.6605 58.1538 282.309 0 0 0 
514 1 1 45.9105 58.1831 275.677 0 0 0 
517 1 1 46.4961 58.9182 279.196 0 0 0 
520 1 1 47.0816 59.6534 282.714 0 0 0 
521 2 1 50.6091 58.7142 281.816 0 0 0 
522 3 1 54.1963 57.7434 282.642 0 0 0 
524 2 1 44.2776 60.3301 288.104 0 0 0 
525 3 1 40.8316 59.6242 289.346 0 0 0 
523 1 1 47.6671 60.3886 286.232 0 0 0 
526 1 1 48.2527 61.1237 289.751 0 0 0 
527 2 1 51.7801 60.1846 288.853 0 0 0 
529 1 1 48.8382 61.8589 293.269 0 0 0 
530 2 1 45.4487 61.8004 295.14 0 0 0 
528 3 1 55.3674 59.2137 289.678 0 0 0 
531 3 1 42.0026 61.0945 296.383 0 0 0 
537 3 1 43.1737 62.5648 303.42 0 0 0 
532 1 1 49.4237 62.5941 296.788 0 0 0 
533 2 1 52.9512 61.6549 295.89 0 0 0 
535 1 1 50.0093 63.3292 300.306 0 0 0 
536 2 1 46.6197 63.2707 302.177 0 0 0 
538 1 1 50.5948 64.0644 303.824 0 0 0 
539 2 1 54.1223 63.1252 302.927 0 0 0 
534 3 1 56.5384 60.684 296.715 0 0 0 
540 3 1 57.7095 62.1543 303.752 0 0 0 
543 3 1 44.3447 64.0351 310.456 0 0 0 
541 1 1 51.1803 64.7995 307.343 0 0 0 
542 2 1 47.7908 64.7411 309.214 0 0 0 
545 2 1 55.2933 64.5955 309.964 0 0 0 
546 3 1 58.8805 63.6247 310.789 0 0 0 
544 1 1 51.7659 65.5347 310.861 0 0 0 
547 1 1 52.3514 66.2699 314.38 0 0 0 
552 3 1 60.0516 65.095 317.825 0 0 0 
548 2 1 48.9619 66.2114 316.251 0 0 0 
549 3 1 45.5158 65.5055 317.493 0 0 0 
550 1 1 52.9369 67.005 317.898 0 0 0 
553 1 1 53.5224 67.7402 321.416 0 0 0 
554 2 1 50.1329 67.6817 323.288 0 0 0 
555 3 1 46.6868 66.9758 324.53 0 0 0 
556 1 1 54.108 68.4754 324.935 0 0 0 
551 2 1 56.4644 66.0659 317 0 0 0 
557 2 1 57.6354 67.5362 324.037 0 0 0 
558 3 1 61.2227 66.5653 324.862 0 0 0 
ITEM: TIMESTEP
100000
ITEM: NUMBER OF ATOMS
558
ITEM: BOX BOUNDS pp pp pp
-736.806 736.806
-736.806 736.806
-736.806 736.806
ITEM: ATOMS id type mol x y z ix iy iz 
1 1 1 -38.6149 -36.6516 -285.627 0 0 0 
2 2 1 -40.1975 -40.1513 -286.683 0 0 0 
10 1 1 -35.5115 -45.1779 -279.408 0 0 0 
13 1 1 -35.2097 -47.6201 -276.511 0 0 0 
18 3 1 -41.7174 -52.435 -277.714 0 0 0 
11 2 1 -37.1366 -48.2508 -281.519 0 0 0 
12 3 1 -39.1701 -49.6144 -284.029 0 0 0 
6 3 1 -33.9026 -44.2462 -288.617 0 0 0 
5 2 1 -34.2898 -41.8762 -285.738 0 0 0 
3 3 1 -39.57 -43.2046 -288.502 0 0 0 
8 2 1 -33.7255 -41.0377 -277.267 0 0 0 
9 3 1 -31.5813 -39.5822 -274.671 0 0 0 
7 1 1 -35.349 -41.5972 -280.856 0 0 0 
4 1 1 -36.2927 -39.1266 -283.637 0 0 0 
29 2 1 -36.1922 -68.1197 -269.309 0 0 0 
27 3 1 -37.8402 -65.5574 -274.849 0 0 0 
30 3 1 -35.2813 -70.6706 -272.021 0 0 0 
22 1 1 -36.4799 -57.2544 -270.462 0 0 0 
26 2 1 -35.6646 -64.1298 -272.258 0 0 0 
25 1 1 -36.2582 -61.0763 -269.521 0 0 0 
23 2 1 -38.74 -58.2161 -267.074 0 0 0 
28 1 1 -35.7326 -64.4058 -267.561 0 0 0 
14 2 1 -32.1899 -48.1793 -273.748 0 0 0 
19 1 1 -36.0863 -53.8755 -272.222 0 0 0 
16 1 1 -36.1266 -50.7335 -274.374 0 0 0 
20 2 1 -34.5181 -53.7403 -268.759 0 0 0 
21 3 1 -31.758 -52.3699 -266.403 0 0 0 
17 2 1 -39.3831 -53.2449 -274.917 0 0 0 
15 3 1 -29.9038 -49.7044 -271.537 0 0 0 
42 3 1 -36.4786 -80.838 -258.366 0 0 0 
41 2 1 -37.5096 -78.0681 -256.4 0 0 0 
35 2 1 -36.4952 -73.0205 -262.888 0 0 0 
36 3 1 -37.3065 -76.7516 -262.648 0 0 0 
34 1 1 -35.9075 -69.2008 -261.439 0 0 0 
37 1 1 -36.4561 -71.219 -258.272 0 0 0 
31 1 1 -35.5583 -66.5631 -264.282 0 0 0 
24 3 1 -39.5205 -57.3269 -263.532 0 0 0 
32 2 1 -35.3209 -64.0403 -261.046 0 0 0 
33 3 1 -32.9578 -63.3607 -258.593 0 0 0 
44 2 1 -38.5886 -79.8354 -251.56 0 0 0 
45 3 1 -39.8217 -83.5481 -251.709 0 0 0 
47 2 1 -42.1476 -74.6427 -246.616 0 0 0 
46 1 1 -39.0578 -76.363 -248.683 0 0 0 
48 3 1 -42.4593 -72.622 -243.411 0 0 0 
40 1 1 -37.2269 -74.0868 -255.697 0 0 0 
43 1 1 -38.0481 -76.0981 -252.484 0 0 0 
38 2 1 -35.5809 -69.4019 -254.844 0 0 0 
39 3 1 -32.7683 -67.3198 -253.123 0 0 0 
52 1 1 -38.7811 -76.7185 -241.16 0 0 0 
49 1 1 -39.2409 -77.5796 -244.97 0 0 0 
53 2 1 -39.6456 -79.4724 -238.31 0 0 0 
55 1 1 -38.0002 -75.1407 -237.648 0 0 0 
50 2 1 -40.1484 -81.0542 -243.198 0 0 0 
51 3 1 -40.798 -84.7631 -243.315 0 0 0 
54 3 1 -42.6095 -80.4436 -236.521 0 0 0 
57 3 1 -34.6016 -80.6158 -234.29 0 0 0 
56 2 1 -36.4248 -77.6918 -235 0 0 0 
58 1 1 -37.5244 -73.3238 -234.202 0 0 0 
61 1 1 -37.8922 -73.8847 -230.331 0 0 0 
62 2 1 -39.6948 -77.2648 -229.264 0 0 0 
63 3 1 -40.3034 -81.1074 -229.32 0 0 0 
59 2 1 -36.6121 -69.6093 -233.012 0 0 0 
60 3 1 -36.7074 -65.7503 -232.278 0 0 0 
71 2 1 -31.7964 -76.423 -217.499 0 0 0 
70 1 1 -35.0463 -74.7157 -219.264 0 0 0 
72 3 1 -28.0127 -77.1256 -218.205 0 0 0 
64 1 1 -37.3267 -73.6571 -226.55 0 0 0 
67 1 1 -36.209 -74.111 -222.814 0 0 0 
66 3 1 -42.5524 -70.2495 -223.478 0 0 0 
65 2 1 -39.0819 -71.0431 -223.766 0 0 0 
68 2 1 -38.4846 -72.5957 -219.893 0 0 0 
69 3 1 -42.0733 -72.3045 -219.151 0 0 0 
75 3 1 -31.869 -78.7913 -211.287 0 0 0 
74 2 1 -33.2744 -75.5925 -212.703 0 0 0 
73 1 1 -35.807 -73.9678 -215.558 0 0 0 
77 2 1 -41.0079 -71.1639 -212.286 0 0 0 
78 3 1 -43.6362 -69.4918 -214.457 0 0 0 
76 1 1 -37.2718 -72.7424 -212.159 0 0 0 
79 1 1 -38.092 -71.7056 -208.507 0 0 0 
81 3 1 -34.766 -76.764 -203.991 0 0 0 
80 2 1 -35.6365 -73.5485 -205.936 0 0 0 
82 1 1 -38.4919 -70.5871 -204.694 0 0 0 
86 2 1 -40.0908 -73.0348 -198.449 0 0 0 
83 2 1 -41.3699 -68.3365 -203.105 0 0 0 
85 1 1 -38.7953 -69.9764 -200.771 0 0 0 
88 1 1 -39.3878 -69.0668 -197.067 0 0 0 
89 2 1 -39.9032 -65.7651 -194.897 0 0 0 
87 3 1 -43.3773 -73.844 -199.309 0 0 0 
84 3 1 -44.2548 -65.8814 -202.59 0 0 0 
90 3 1 -40.1619 -63.1843 -192.406 0 0 0 
93 3 1 -40.6497 -75.7884 -194.036 0 0 0 
91 1 1 -40.3039 -70.1619 -193.405 0 0 0 
92 2 1 -42.3761 -72.8833 -193.057 0 0 0 
94 1 1 -40.6465 -70.1392 -189.55 0 0 0 
95 2 1 -41.6797 -73.4183 -187.636 0 0 0 
97 1 1 -40.6399 -68.3352 -186.018 0 0 0 
96 3 1 -41.1065 -76.2973 -185.726 0 0 0 
99 3 1 -46.0958 -69.5776 -180.558 0 0 0 
98 2 1 -43.153 -69.4198 -183.058 0 0 0 
100 1 1 -39.9594 -65.6904 -183.192 0 0 0 
104 2 1 -34.9925 -61.2807 -181.953 0 0 0 
101 2 1 -42.5622 -64.9789 -180.208 0 0 0 
103 1 1 -38.4485 -63.196 -180.699 0 0 0 
102 3 1 -45.3345 -63.4821 -178.355 0 0 0 
107 2 1 -38.425 -62.1358 -174.03 0 0 0 
106 1 1 -38.2072 -60.7187 -177.841 0 0 0 
105 3 1 -33.8319 -59.1365 -184.722 0 0 0 
109 1 1 -38.0108 -57.2927 -176.235 0 0 0 
110 2 1 -35.7119 -56.7993 -172.907 0 0 0 
111 3 1 -34.3789 -54.6093 -170.06 0 0 0 
108 3 1 -38.9135 -63.7288 -170.929 0 0 0 
113 2 1 -38.0884 -49.9156 -176.956 0 0 0 
114 3 1 -36.5132 -47.3815 -179.375 0 0 0 
112 1 1 -38.1648 -53.5728 -175.048 0 0 0 
120 3 1 -35.9202 -51.2999 -161.94 0 0 0 
119 2 1 -36.4841 -49.9094 -165.221 0 0 0 
115 1 1 -37.6233 -50.6127 -172.406 0 0 0 
118 1 1 -36.5211 -48.8398 -169.127 0 0 0 
117 3 1 -38.4774 -43.6306 -173.859 0 0 0 
123 3 1 -31.4007 -39.9844 -168.632 0 0 0 
121 1 1 -34.7173 -46.2576 -166.748 0 0 0 
122 2 1 -31.8055 -43.5916 -167.586 0 0 0 
116 2 1 -37.3781 -46.7778 -173.208 0 0 0 
124 1 1 -34.3875 -44.3471 -163.347 0 0 0 
125 2 1 -33.5776 -40.2824 -163.404 0 0 0 
128 2 1 -34.1366 -40.6264 -156.752 0 0 0 
127 1 1 -33.7237 -43.761 -159.405 0 0 0 
130 1 1 -32.5304 -44.4876 -155.651 0 0 0 
126 3 1 -33.6611 -36.8398 -164.08 0 0 0 
129 3 1 -35.5011 -38.3278 -154.375 0 0 0 
132 3 1 -36.8753 -47.9752 -154.27 0 0 0 
141 3 1 -30.7467 -50.758 -145.223 0 0 0 
138 3 1 -29.6288 -36.4194 -147.434 0 0 0 
131 2 1 -33.4142 -47.7955 -153.662 0 0 0 
137 2 1 -30.4277 -40.0205 -146.707 0 0 0 
136 1 1 -31.2971 -43.576 -148.255 0 0 0 
133 1 1 -31.7637 -43.7022 -152.074 0 0 0 
134 2 1 -30.638 -39.8099 -151.955 0 0 0 
135 3 1 -27.1885 -38.994 -153.061 0 0 0 
147 3 1 -34.1733 -48.2142 -131.82 0 0 0 
143 2 1 -28.7184 -46.8475 -138.585 0 0 0 
140 2 1 -30.1673 -47.8875 -142.747 0 0 0 
146 2 1 -32.0109 -46.5398 -134.438 0 0 0 
144 3 1 -27.0377 -49.8315 -139.28 0 0 0 
139 1 1 -31.1832 -44.3403 -144.506 0 0 0 
145 1 1 -31.1196 -43.3634 -136.807 0 0 0 
142 1 1 -31.0038 -44.1092 -140.603 0 0 0 
150 3 1 -30.3615 -46.3882 -128.076 0 0 0 
148 1 1 -31.2217 -41.5782 -133.411 0 0 0 
151 1 1 -30.8485 -39.3038 -130.267 0 0 0 
152 2 1 -31.01 -35.3962 -129.493 0 0 0 
154 1 1 -30.5394 -39.4294 -126.351 0 0 0 
149 2 1 -30.0052 -43.8007 -130.904 0 0 0 
155 2 1 -31.0752 -42.9878 -124.46 0 0 0 
153 3 1 -30.2859 -31.6801 -128.751 0 0 0 
161 2 1 -25.6047 -35.6695 -119.055 0 0 0 
162 3 1 -23.8352 -32.6007 -118.986 0 0 0 
156 3 1 -32.4631 -46.4321 -123.307 0 0 0 
163 1 1 -27.5953 -37.4379 -115.644 0 0 0 
160 1 1 -28.7968 -38.0166 -119.134 0 0 0 
157 1 1 -30.3171 -38.7784 -122.626 0 0 0 
159 3 1 -35.8441 -35.0522 -118.932 0 0 0 
158 2 1 -33.5882 -37.3846 -120.707 0 0 0 
164 2 1 -23.6756 -36.7844 -114.982 0 0 0 
165 3 1 -20.4386 -38.0894 -114.685 0 0 0 
171 3 1 -19.7879 -40.7013 -108.72 0 0 0 
166 1 1 -27.1038 -37.1558 -111.858 0 0 0 
167 2 1 -30.1125 -36.1806 -109.431 0 0 0 
168 3 1 -33.2833 -36.2899 -107.941 0 0 0 
169 1 1 -25.7251 -36.9064 -108.274 0 0 0 
170 2 1 -22.148 -38.4891 -107.397 0 0 0 
177 3 1 -29.3326 -39.8347 -95.8694 0 0 0 
176 2 1 -26.4103 -38.2907 -97.8618 0 0 0 
172 1 1 -25.3451 -35.9648 -104.486 0 0 0 
173 2 1 -25.2064 -32.3206 -103.704 0 0 0 
179 2 1 -23.3917 -31.4771 -96.0167 0 0 0 
175 1 1 -25.0087 -36.0789 -100.55 0 0 0 
178 1 1 -24.1434 -35.2199 -96.8716 0 0 0 