ITEM: TIMESTEP
0
ITEM: NUMBER OF ATOMS
1224
ITEM: BOX BOUNDS pp pp pp
-900 900
-900 900
-900 900
ITEM: ATOMS id type mol x y z ix iy iz 
6 3 1 -111.509 -150.308 -713.066 0 0 0 
2 2 1 -122.599 -149.191 -714.64 0 0 0 
3 3 1 -126.045 -149.897 -713.398 0 0 0 
1 1 1 -119.209 -149.133 -716.512 0 0 0 
4 1 1 -118.624 -148.398 -712.993 0 0 0 
5 2 1 -115.096 -149.337 -713.891 0 0 0 
8 2 1 -121.427 -147.721 -707.604 0 0 0 
9 3 1 -124.874 -148.427 -706.361 0 0 0 
14 2 1 -120.257 -146.251 -700.567 0 0 0 
7 1 1 -118.038 -147.663 -709.475 0 0 0 
10 1 1 -117.453 -146.928 -705.957 0 0 0 
11 2 1 -113.925 -147.867 -706.854 0 0 0 
12 3 1 -110.338 -148.838 -706.029 0 0 0 
13 1 1 -116.867 -146.192 -702.438 0 0 0 
15 3 1 -123.703 -146.957 -699.324 0 0 0 
21 3 1 -122.531 -145.486 -692.288 0 0 0 
16 1 1 -116.281 -145.457 -698.92 0 0 0 
17 2 1 -112.754 -146.396 -699.817 0 0 0 
19 1 1 -115.696 -144.722 -695.401 0 0 0 
20 2 1 -119.085 -144.78 -693.53 0 0 0 
22 1 1 -115.11 -143.987 -691.883 0 0 0 
23 2 1 -111.583 -144.926 -692.781 0 0 0 
18 3 1 -109.167 -147.367 -698.992 0 0 0 
24 3 1 -107.996 -145.897 -691.955 0 0 0 
27 3 1 -121.36 -144.016 -685.251 0 0 0 
25 1 1 -114.525 -143.252 -688.365 0 0 0 
26 2 1 -117.914 -143.31 -686.493 0 0 0 
28 1 1 -113.939 -142.517 -684.846 0 0 0 
29 2 1 -110.412 -143.456 -685.744 0 0 0 
31 1 1 -113.354 -141.781 -681.328 0 0 0 
30 3 1 -106.825 -144.427 -684.919 0 0 0 
33 3 1 -120.189 -142.546 -678.214 0 0 0 
32 2 1 -116.743 -141.84 -679.456 0 0 0 
34 1 1 -112.768 -141.046 -677.809 0 0 0 
37 1 1 -112.183 -140.311 -674.291 0 0 0 
38 2 1 -115.572 -140.369 -672.42 0 0 0 
39 3 1 -119.018 -141.075 -671.177 0 0 0 
35 2 1 -109.241 -141.985 -678.707 0 0 0 
36 3 1 -105.653 -142.956 -677.882 0 0 0 
41 2 1 -108.07 -140.515 -671.67 0 0 0 
42 3 1 -104.483 -141.486 -670.845 0 0 0 
40 1 1 -111.597 -139.576 -670.773 0 0 0 
48 3 1 -103.311 -140.016 -663.808 0 0 0 
43 1 1 -111.012 -138.841 -667.254 0 0 0 
44 2 1 -114.401 -138.899 -665.383 0 0 0 
45 3 1 -117.847 -139.605 -664.14 0 0 0 
46 1 1 -110.426 -138.106 -663.736 0 0 0 
47 2 1 -106.899 -139.045 -664.633 0 0 0 
49 1 1 -109.841 -137.37 -660.217 0 0 0 
50 2 1 -113.23 -137.429 -658.346 0 0 0 
51 3 1 -116.676 -138.135 -657.104 0 0 0 
56 2 1 -112.059 -135.958 -651.309 0 0 0 
57 3 1 -115.505 -136.664 -650.067 0 0 0 
52 1 1 -109.255 -136.635 -656.699 0 0 0 
53 2 1 -105.728 -137.574 -657.597 0 0 0 
54 3 1 -102.14 -138.545 -656.771 0 0 0 
55 1 1 -108.669 -135.9 -653.181 0 0 0 
59 2 1 -104.556 -136.104 -650.56 0 0 0 
62 2 1 -110.888 -134.488 -644.272 0 0 0 
63 3 1 -114.334 -135.194 -643.03 0 0 0 
58 1 1 -108.084 -135.165 -649.662 0 0 0 
60 3 1 -100.969 -137.075 -649.735 0 0 0 
61 1 1 -107.499 -134.43 -646.144 0 0 0 
64 1 1 -106.913 -133.695 -642.625 0 0 0 
65 2 1 -103.385 -134.634 -643.523 0 0 0 
66 3 1 -99.7983 -135.605 -642.698 0 0 0 
69 3 1 -113.163 -133.724 -635.993 0 0 0 
67 1 1 -106.327 -132.959 -639.107 0 0 0 
68 2 1 -109.717 -133.018 -637.236 0 0 0 
70 1 1 -105.742 -132.224 -635.588 0 0 0 
71 2 1 -102.214 -133.163 -636.486 0 0 0 
73 1 1 -105.156 -131.489 -632.07 0 0 0 
74 2 1 -108.546 -131.548 -630.199 0 0 0 
72 3 1 -98.6272 -134.134 -635.661 0 0 0 
75 3 1 -111.992 -132.254 -628.957 0 0 0 
81 3 1 -110.821 -130.783 -621.92 0 0 0 
76 1 1 -104.571 -130.754 -628.552 0 0 0 
77 2 1 -101.043 -131.693 -629.449 0 0 0 
79 1 1 -103.985 -130.019 -625.033 0 0 0 
80 2 1 -107.375 -130.077 -623.162 0 0 0 
78 3 1 -97.4562 -132.664 -628.624 0 0 0 
83 2 1 -99.8723 -130.223 -622.413 0 0 0 
84 3 1 -96.2851 -131.194 -621.587 0 0 0 
82 1 1 -103.4 -129.284 -621.515 0 0 0 
85 1 1 -102.814 -128.548 -617.996 0 0 0 
86 2 1 -106.204 -128.607 -616.125 0 0 0 
87 3 1 -109.65 -129.313 -614.883 0 0 0 
88 1 1 -102.229 -127.813 -614.478 0 0 0 
91 1 1 -101.643 -127.078 -610.96 0 0 0 
89 2 1 -98.7013 -128.752 -615.376 0 0 0 
90 3 1 -95.114 -129.723 -614.551 0 0 0 
92 2 1 -105.033 -127.137 -609.088 0 0 0 
93 3 1 -108.479 -127.843 -607.846 0 0 0 
94 1 1 -101.058 -126.343 -607.441 0 0 0 
97 1 1 -100.472 -125.608 -603.923 0 0 0 
98 2 1 -103.862 -125.666 -602.052 0 0 0 
99 3 1 -107.308 -126.372 -600.809 0 0 0 
95 2 1 -97.5302 -127.282 -608.339 0 0 0 
96 3 1 -93.943 -128.253 -607.514 0 0 0 
100 1 1 -99.8866 -124.873 -600.404 0 0 0 
101 2 1 -96.3591 -125.812 -601.302 0 0 0 
102 3 1 -92.7719 -126.783 -600.477 0 0 0 
104 2 1 -102.691 -124.196 -595.015 0 0 0 
105 3 1 -106.137 -124.902 -593.773 0 0 0 
103 1 1 -99.3011 -124.137 -596.886 0 0 0 
106 1 1 -98.7155 -123.402 -593.368 0 0 0 
107 2 1 -95.1881 -124.341 -594.265 0 0 0 
108 3 1 -91.6008 -125.312 -593.44 0 0 0 
110 2 1 -101.519 -122.726 -587.978 0 0 0 
111 3 1 -104.966 -123.431 -586.736 0 0 0 
116 2 1 -100.348 -121.255 -580.941 0 0 0 
109 1 1 -98.13 -122.667 -589.849 0 0 0 
112 1 1 -97.5445 -121.932 -586.331 0 0 0 
113 2 1 -94.017 -122.871 -587.229 0 0 0 
114 3 1 -90.4298 -123.842 -586.403 0 0 0 
115 1 1 -96.9589 -121.197 -582.812 0 0 0 
119 2 1 -92.846 -121.401 -580.192 0 0 0 
117 3 1 -103.794 -121.961 -579.699 0 0 0 
123 3 1 -102.623 -120.491 -572.662 0 0 0 
118 1 1 -96.3734 -120.462 -579.294 0 0 0 
120 3 1 -89.2587 -122.372 -579.367 0 0 0 
126 3 1 -88.0877 -120.901 -572.33 0 0 0 
121 1 1 -95.7879 -119.726 -575.776 0 0 0 
122 2 1 -99.1774 -119.785 -573.904 0 0 0 
124 1 1 -95.2023 -118.991 -572.257 0 0 0 
125 2 1 -91.6749 -119.93 -573.155 0 0 0 
129 3 1 -101.452 -119.02 -565.625 0 0 0 
127 1 1 -94.6168 -118.256 -568.739 0 0 0 
128 2 1 -98.0063 -118.315 -566.868 0 0 0 
130 1 1 -94.0313 -117.521 -565.22 0 0 0 
131 2 1 -90.5038 -118.46 -566.118 0 0 0 
133 1 1 -93.4458 -116.786 -561.702 0 0 0 
132 3 1 -86.9166 -119.431 -565.293 0 0 0 
135 3 1 -100.281 -117.55 -558.588 0 0 0 
134 2 1 -96.8353 -116.844 -559.831 0 0 0 
136 1 1 -92.8602 -116.051 -558.184 0 0 0 
139 1 1 -92.2747 -115.316 -554.665 0 0 0 
140 2 1 -95.6642 -115.374 -552.794 0 0 0 
141 3 1 -99.1103 -116.08 -551.552 0 0 0 
142 1 1 -91.6892 -114.58 -551.147 0 0 0 
137 2 1 -89.3328 -116.99 -559.081 0 0 0 
138 3 1 -85.7455 -117.961 -558.256 0 0 0 
143 2 1 -88.1617 -115.519 -552.044 0 0 0 
144 3 1 -84.5745 -116.49 -551.219 0 0 0 
145 1 1 -91.1036 -113.845 -547.628 0 0 0 
146 2 1 -94.4931 -113.904 -545.757 0 0 0 
147 3 1 -97.9392 -114.609 -544.515 0 0 0 
148 1 1 -90.5181 -113.11 -544.11 0 0 0 
149 2 1 -86.9906 -114.049 -545.008 0 0 0 
150 3 1 -83.4034 -115.02 -544.183 0 0 0 
151 1 1 -89.9326 -112.375 -540.592 0 0 0 
152 2 1 -93.3221 -112.433 -538.72 0 0 0 
153 3 1 -96.7682 -113.139 -537.478 0 0 0 
158 2 1 -92.151 -110.963 -531.684 0 0 0 
159 3 1 -95.5971 -111.669 -530.441 0 0 0 
154 1 1 -89.347 -111.64 -537.073 0 0 0 
155 2 1 -85.8196 -112.579 -537.971 0 0 0 
156 3 1 -82.2324 -113.55 -537.146 0 0 0 
157 1 1 -88.7615 -110.904 -533.555 0 0 0 
160 1 1 -88.176 -110.169 -530.036 0 0 0 
161 2 1 -84.6485 -111.109 -530.934 0 0 0 
162 3 1 -81.0613 -112.079 -530.109 0 0 0 
165 3 1 -94.426 -110.199 -523.404 0 0 0 
168 3 1 -79.8902 -110.609 -523.072 0 0 0 
164 2 1 -90.98 -109.493 -524.647 0 0 0 
163 1 1 -87.5905 -109.434 -526.518 0 0 0 
166 1 1 -87.0049 -108.699 -523 0 0 0 
167 2 1 -83.4775 -109.638 -523.897 0 0 0 
171 3 1 -93.255 -108.728 -516.368 0 0 0 
169 1 1 -86.4194 -107.964 -519.481 0 0 0 
170 2 1 -89.8089 -108.022 -517.61 0 0 0 
172 1 1 -85.8339 -107.229 -515.963 0 0 0 
173 2 1 -82.3064 -108.168 -516.861 0 0 0 
175 1 1 -85.2483 -106.493 -512.444 0 0 0 
176 2 1 -88.6379 -106.552 -510.573 0 0 0 
174 3 1 -78.7192 -109.139 -516.035 0 0 0 
177 3 1 -92.0839 -107.258 -509.331 0 0 0 
183 3 1 -90.9129 -105.788 -502.294 0 0 0 
178 1 1 -84.6628 -105.758 -508.926 0 0 0 
179 2 1 -81.1353 -106.698 -509.824 0 0 0 
181 1 1 -84.0773 -105.023 -505.408 0 0 0 
182 2 1 -87.4668 -105.082 -503.536 0 0 0 
184 1 1 -83.4917 -104.288 -501.889 0 0 0 
180 3 1 -77.5481 -107.668 -508.999 0 0 0 
185 2 1 -79.9643 -105.227 -502.787 0 0 0 
186 3 1 -76.377 -106.198 -501.962 0 0 0 
187 1 1 -82.9062 -103.553 -498.371 0 0 0 
188 2 1 -86.2957 -103.611 -496.5 0 0 0 
189 3 1 -89.7418 -104.317 -495.257 0 0 0 
190 1 1 -82.3207 -102.818 -494.852 0 0 0 
193 1 1 -81.7352 -102.082 -491.334 0 0 0 
191 2 1 -78.7932 -103.757 -495.75 0 0 0 
192 3 1 -75.206 -104.728 -494.925 0 0 0 
194 2 1 -85.1247 -102.141 -489.463 0 0 0 
195 3 1 -88.5707 -102.847 -488.221 0 0 0 
196 1 1 -81.1496 -101.347 -487.816 0 0 0 
199 1 1 -80.5641 -100.612 -484.297 0 0 0 
200 2 1 -83.9536 -100.671 -482.426 0 0 0 
201 3 1 -87.3997 -101.377 -481.184 0 0 0 
197 2 1 -77.6222 -102.287 -488.713 0 0 0 
198 3 1 -74.0349 -103.257 -487.888 0 0 0 
203 2 1 -76.4511 -100.816 -481.676 0 0 0 
204 3 1 -72.8639 -101.787 -480.851 0 0 0 
202 1 1 -79.9785 -99.8771 -480.779 0 0 0 
210 3 1 -71.6928 -100.317 -473.815 0 0 0 
206 2 1 -82.7825 -99.2004 -475.389 0 0 0 
207 3 1 -86.2286 -99.9063 -474.147 0 0 0 
205 1 1 -79.393 -99.1419 -477.26 0 0 0 
208 1 1 -78.8075 -98.4067 -473.742 0 0 0 
209 2 1 -75.28 -99.3459 -474.64 0 0 0 
211 1 1 -78.222 -97.6716 -470.224 0 0 0 
212 2 1 -81.6115 -97.7301 -468.352 0 0 0 
213 3 1 -85.0576 -98.436 -467.11 0 0 0 
218 2 1 -80.4404 -96.2597 -461.316 0 0 0 
219 3 1 -83.8865 -96.9657 -460.073 0 0 0 
214 1 1 -77.6364 -96.9364 -466.705 0 0 0 
215 2 1 -74.109 -97.8756 -467.603 0 0 0 
216 3 1 -70.5217 -98.8465 -466.778 0 0 0 
217 1 1 -77.0509 -96.2013 -463.187 0 0 0 
221 2 1 -72.9379 -96.4053 -460.566 0 0 0 
225 3 1 -82.7154 -95.4953 -453.036 0 0 0 
220 1 1 -76.4654 -95.4661 -459.668 0 0 0 
223 1 1 -75.8798 -94.7309 -456.15 0 0 0 
224 2 1 -79.2694 -94.7894 -454.279 0 0 0 
226 1 1 -75.2943 -93.9958 -452.632 0 0 0 
227 2 1 -71.7668 -94.935 -453.529 0 0 0 
222 3 1 -69.3507 -97.3761 -459.741 0 0 0 
228 3 1 -68.1796 -95.9058 -452.704 0 0 0 
231 3 1 -81.5444 -94.025 -446 0 0 0 
229 1 1 -74.7088 -93.2606 -449.113 0 0 0 
230 2 1 -78.0983 -93.3191 -447.242 0 0 0 
232 1 1 -74.1232 -92.5254 -445.595 0 0 0 
233 2 1 -70.5958 -93.4646 -446.493 0 0 0 
235 1 1 -73.5377 -91.7903 -442.076 0 0 0 
236 2 1 -76.9272 -91.8488 -440.205 0 0 0 
234 3 1 -67.0086 -94.4355 -445.667 0 0 0 
237 3 1 -80.3733 -92.5547 -438.963 0 0 0 
238 1 1 -72.9522 -91.0551 -438.558 0 0 0 
241 1 1 -72.3667 -90.3199 -435.04 0 0 0 
242 2 1 -75.7562 -90.3784 -433.168 0 0 0 
243 3 1 -79.2022 -91.0844 -431.926 0 0 0 
239 2 1 -69.4247 -91.9943 -439.456 0 0 0 
240 3 1 -65.8375 -92.9651 -438.631 0 0 0 
245 2 1 -68.2537 -90.524 -432.419 0 0 0 
246 3 1 -64.6664 -91.4948 -431.594 0 0 0 
244 1 1 -71.7811 -89.5848 -431.521 0 0 0 
252 3 1 -63.4954 -90.0245 -424.557 0 0 0 
247 1 1 -71.1956 -88.8496 -428.003 0 0 0 
248 2 1 -74.5851 -88.9081 -426.132 0 0 0 
249 3 1 -78.0312 -89.614 -424.889 0 0 0 
250 1 1 -70.6101 -88.1145 -424.484 0 0 0 
253 1 1 -70.0245 -87.3793 -420.966 0 0 0 
251 2 1 -67.0826 -89.0536 -425.382 0 0 0 
254 2 1 -73.4141 -87.4378 -419.095 0 0 0 
255 3 1 -76.8601 -88.1437 -417.853 0 0 0 
260 2 1 -72.243 -85.9674 -412.058 0 0 0 
261 3 1 -75.6891 -86.6734 -410.816 0 0 0 
256 1 1 -69.439 -86.6441 -417.448 0 0 0 
257 2 1 -65.9115 -87.5833 -418.345 0 0 0 
258 3 1 -62.3243 -88.5542 -417.52 0 0 0 
259 1 1 -68.8535 -85.909 -413.929 0 0 0 
262 1 1 -68.2679 -85.1738 -410.411 0 0 0 
263 2 1 -64.7405 -86.113 -411.308 0 0 0 
264 3 1 -61.1533 -87.0838 -410.483 0 0 0 
266 2 1 -71.0719 -84.4971 -405.021 0 0 0 
267 3 1 -74.518 -85.203 -403.779 0 0 0 
265 1 1 -67.6824 -84.4386 -406.892 0 0 0 
268 1 1 -67.0969 -83.7035 -403.374 0 0 0 
269 2 1 -63.5694 -84.6427 -404.272 0 0 0 
270 3 1 -59.9822 -85.6135 -403.447 0 0 0 
273 3 1 -73.3469 -83.7327 -396.742 0 0 0 
271 1 1 -66.5113 -82.9683 -399.856 0 0 0 
272 2 1 -69.9009 -83.0268 -397.984 0 0 0 
274 1 1 -65.9258 -82.2331 -396.337 0 0 0 
275 2 1 -62.3984 -83.1723 -397.235 0 0 0 
277 1 1 -65.3403 -81.498 -392.819 0 0 0 
278 2 1 -68.7298 -81.5565 -390.948 0 0 0 
281 2 1 -61.2273 -81.702 -390.198 0 0 0 
276 3 1 -58.8111 -84.1432 -396.41 0 0 0 
279 3 1 -72.1759 -82.2624 -389.705 0 0 0 
285 3 1 -71.0048 -80.7921 -382.668 0 0 0 
280 1 1 -64.7548 -80.7628 -389.3 0 0 0 
283 1 1 -64.1692 -80.0277 -385.782 0 0 0 
284 2 1 -67.5587 -80.0861 -383.911 0 0 0 
287 2 1 -60.0562 -80.2317 -383.161 0 0 0 
282 3 1 -57.6401 -82.6729 -389.373 0 0 0 
288 3 1 -56.469 -81.2025 -382.336 0 0 0 
286 1 1 -63.5837 -79.2925 -382.264 0 0 0 
289 1 1 -62.9982 -78.5573 -378.745 0 0 0 
290 2 1 -66.3877 -78.6158 -376.874 0 0 0 
291 3 1 -69.8337 -79.3217 -375.632 0 0 0 
292 1 1 -62.4126 -77.8222 -375.227 0 0 0 
295 1 1 -61.8271 -77.087 -371.708 0 0 0 
293 2 1 -58.8852 -78.7613 -376.125 0 0 0 
294 3 1 -55.298 -79.7322 -375.299 0 0 0 
296 2 1 -65.2166 -77.1455 -369.837 0 0 0 
297 3 1 -68.6627 -77.8514 -368.595 0 0 0 
298 1 1 -61.2416 -76.3518 -368.19 0 0 0 
301 1 1 -60.656 -75.6167 -364.672 0 0 0 
302 2 1 -64.0456 -75.6752 -362.8 0 0 0 
303 3 1 -67.4916 -76.3811 -361.558 0 0 0 
304 1 1 -60.0705 -74.8815 -361.153 0 0 0 
299 2 1 -57.7141 -77.291 -369.088 0 0 0 
300 3 1 -54.1269 -78.2619 -368.263 0 0 0 
305 2 1 -56.543 -75.8207 -362.051 0 0 0 
306 3 1 -52.9558 -76.7916 -361.226 0 0 0 
308 2 1 -62.8745 -74.2048 -355.764 0 0 0 
309 3 1 -66.3206 -74.9107 -354.521 0 0 0 
307 1 1 -59.485 -74.1463 -357.635 0 0 0 
310 1 1 -58.8995 -73.4112 -354.116 0 0 0 
311 2 1 -55.372 -74.3504 -355.014 0 0 0 
312 3 1 -51.7848 -75.3212 -354.189 0 0 0 
313 1 1 -58.3139 -72.676 -350.598 0 0 0 
314 2 1 -61.7034 -72.7345 -348.727 0 0 0 
315 3 1 -65.1495 -73.4404 -347.485 0 0 0 
320 2 1 -60.5324 -71.2642 -341.69 0 0 0 
321 3 1 -63.9784 -71.9701 -340.448 0 0 0 
316 1 1 -57.7284 -71.9409 -347.08 0 0 0 
317 2 1 -54.2009 -72.88 -347.977 0 0 0 
318 3 1 -50.6137 -73.8509 -347.152 0 0 0 
319 1 1 -57.1429 -71.2057 -343.561 0 0 0 
322 1 1 -56.5573 -70.4705 -340.043 0 0 0 
323 2 1 -53.0299 -71.4097 -340.94 0 0 0 
324 3 1 -49.4426 -72.3806 -340.115 0 0 0 
327 3 1 -62.8074 -70.4998 -333.411 0 0 0 
330 3 1 -48.2716 -70.9103 -333.079 0 0 0 
325 1 1 -55.9718 -69.7354 -336.524 0 0 0 
326 2 1 -59.3613 -69.7939 -334.653 0 0 0 
328 1 1 -55.3863 -69.0002 -333.006 0 0 0 
329 2 1 -51.8588 -69.9394 -333.904 0 0 0 
333 3 1 -61.6363 -69.0294 -326.374 0 0 0 
331 1 1 -54.8007 -68.265 -329.488 0 0 0 
332 2 1 -58.1902 -68.3235 -327.616 0 0 0 
334 1 1 -54.2152 -67.5299 -325.969 0 0 0 
335 2 1 -50.6877 -68.4691 -326.867 0 0 0 
337 1 1 -53.6297 -66.7947 -322.451 0 0 0 
338 2 1 -57.0192 -66.8532 -320.579 0 0 0 
336 3 1 -47.1005 -69.4399 -326.042 0 0 0 
339 3 1 -60.4653 -67.5591 -319.337 0 0 0 
340 1 1 -53.0441 -66.0596 -318.932 0 0 0 
343 1 1 -52.4586 -65.3244 -315.414 0 0 0 
344 2 1 -55.8481 -65.3829 -313.543 0 0 0 
345 3 1 -59.2942 -66.0888 -312.3 0 0 0 
346 1 1 -51.8731 -64.5892 -311.896 0 0 0 
341 2 1 -49.5167 -66.9987 -319.83 0 0 0 
342 3 1 -45.9295 -67.9696 -319.005 0 0 0 
347 2 1 -48.3456 -65.5284 -312.793 0 0 0 
348 3 1 -44.7584 -66.4993 -311.968 0 0 0 
349 1 1 -51.2876 -63.8541 -308.377 0 0 0 
350 2 1 -54.6771 -63.9125 -306.506 0 0 0 
351 3 1 -58.1231 -64.6185 -305.264 0 0 0 
352 1 1 -50.702 -63.1189 -304.859 0 0 0 
355 1 1 -50.1165 -62.3837 -301.34 0 0 0 
353 2 1 -47.1746 -64.0581 -305.757 0 0 0 
354 3 1 -43.5873 -65.0289 -304.931 0 0 0 
356 2 1 -53.506 -62.4422 -299.469 0 0 0 
357 3 1 -56.9521 -63.1481 -298.227 0 0 0 
362 2 1 -52.3349 -60.9719 -292.432 0 0 0 
363 3 1 -55.781 -61.6778 -291.19 0 0 0 
358 1 1 -49.531 -61.6486 -297.822 0 0 0 
359 2 1 -46.0035 -62.5877 -298.72 0 0 0 
360 3 1 -42.4163 -63.5586 -297.895 0 0 0 
361 1 1 -48.9454 -60.9134 -294.304 0 0 0 
364 1 1 -48.3599 -60.1782 -290.785 0 0 0 
365 2 1 -44.8324 -61.1174 -291.683 0 0 0 
366 3 1 -41.2452 -62.0883 -290.858 0 0 0 
369 3 1 -54.6099 -60.2075 -284.153 0 0 0 
372 3 1 -40.0742 -60.618 -283.821 0 0 0 
368 2 1 -51.1639 -59.5016 -285.396 0 0 0 
367 1 1 -47.7744 -59.4431 -287.267 0 0 0 
370 1 1 -47.1888 -58.7079 -283.748 0 0 0 
371 2 1 -43.6614 -59.6471 -284.646 0 0 0 
373 1 1 -46.6033 -57.9727 -280.23 0 0 0 
375 3 1 -53.4389 -58.7372 -277.116 0 0 0 
381 3 1 -52.2678 -57.2668 -270.08 0 0 0 
374 2 1 -49.9928 -58.0312 -278.359 0 0 0 
376 1 1 -46.0178 -57.2376 -276.712 0 0 0 
377 2 1 -42.4903 -58.1768 -277.609 0 0 0 
379 1 1 -45.4322 -56.5024 -273.193 0 0 0 
380 2 1 -48.8218 -56.5609 -271.322 0 0 0 
383 2 1 -41.3192 -56.7064 -270.572 0 0 0 
378 3 1 -38.9031 -59.1476 -276.784 0 0 0 
387 3 1 -51.0968 -55.7965 -263.043 0 0 0 
382 1 1 -44.8467 -55.7673 -269.675 0 0 0 
385 1 1 -44.2612 -55.0321 -266.156 0 0 0 
386 2 1 -47.6507 -55.0906 -264.285 0 0 0 
388 1 1 -43.6756 -54.2969 -262.638 0 0 0 
389 2 1 -40.1482 -55.2361 -263.536 0 0 0 
384 3 1 -37.732 -57.6773 -269.747 0 0 0 
390 3 1 -36.561 -56.207 -262.711 0 0 0 
391 1 1 -43.0901 -53.5618 -259.12 0 0 0 
392 2 1 -46.4796 -53.6202 -257.248 0 0 0 
393 3 1 -49.9257 -54.3262 -256.006 0 0 0 
394 1 1 -42.5046 -52.8266 -255.601 0 0 0 
397 1 1 -41.9191 -52.0914 -252.083 0 0 0 
398 2 1 -45.3086 -52.1499 -250.212 0 0 0 
395 2 1 -38.9771 -53.7658 -256.499 0 0 0 
396 3 1 -35.3899 -54.7366 -255.674 0 0 0 
399 3 1 -48.7546 -52.8558 -248.969 0 0 0 
400 1 1 -41.3335 -51.3563 -248.564 0 0 0 
403 1 1 -40.748 -50.6211 -245.046 0 0 0 
404 2 1 -44.1375 -50.6796 -243.175 0 0 0 
405 3 1 -47.5836 -51.3855 -241.932 0 0 0 
401 2 1 -37.8061 -52.2955 -249.462 0 0 0 
402 3 1 -34.2188 -53.2663 -248.637 0 0 0 
407 2 1 -36.635 -50.8251 -242.425 0 0 0 
408 3 1 -33.0478 -51.796 -241.6 0 0 0 
406 1 1 -40.1625 -49.886 -241.528 0 0 0 
414 3 1 -31.8767 -50.3257 -234.563 0 0 0 
410 2 1 -42.9665 -49.2093 -236.138 0 0 0 
411 3 1 -46.4125 -49.9152 -234.896 0 0 0 
409 1 1 -39.5769 -49.1508 -238.009 0 0 0 
412 1 1 -38.9914 -48.4156 -234.491 0 0 0 
413 2 1 -35.4639 -49.3548 -235.388 0 0 0 
415 1 1 -38.4059 -47.6805 -230.972 0 0 0 
416 2 1 -41.7954 -47.7389 -229.101 0 0 0 
417 3 1 -45.2415 -48.4449 -227.859 0 0 0 
422 2 1 -40.6243 -46.2686 -222.064 0 0 0 
423 3 1 -44.0704 -46.9745 -220.822 0 0 0 
418 1 1 -37.8203 -46.9453 -227.454 0 0 0 
419 2 1 -34.2929 -47.8845 -228.352 0 0 0 
420 3 1 -30.7057 -48.8553 -227.526 0 0 0 
421 1 1 -37.2348 -46.2101 -223.936 0 0 0 
424 1 1 -36.6493 -45.475 -220.417 0 0 0 
425 2 1 -33.1218 -46.4141 -221.315 0 0 0 
426 3 1 -29.5346 -47.385 -220.49 0 0 0 
429 3 1 -42.8993 -45.5042 -213.785 0 0 0 
427 1 1 -36.0637 -44.7398 -216.899 0 0 0 
428 2 1 -39.4533 -44.7983 -215.028 0 0 0 
430 1 1 -35.4782 -44.0046 -213.38 0 0 0 
431 2 1 -31.9507 -44.9438 -214.278 0 0 0 
432 3 1 -28.3635 -45.9147 -213.453 0 0 0 
435 3 1 -41.7283 -44.0339 -206.748 0 0 0 
433 1 1 -34.8927 -43.2695 -209.862 0 0 0 
434 2 1 -38.2822 -43.328 -207.991 0 0 0 
436 1 1 -34.3072 -42.5343 -206.344 0 0 0 
437 2 1 -30.7797 -43.4735 -207.241 0 0 0 
439 1 1 -33.7216 -41.7991 -202.825 0 0 0 
440 2 1 -37.1111 -41.8576 -200.954 0 0 0 
438 3 1 -27.1925 -44.4444 -206.416 0 0 0 
443 2 1 -29.6086 -42.0032 -200.204 0 0 0 
441 3 1 -40.5572 -42.5636 -199.712 0 0 0 
442 1 1 -33.1361 -41.064 -199.307 0 0 0 
445 1 1 -32.5506 -40.3288 -195.788 0 0 0 
446 2 1 -35.9401 -40.3873 -193.917 0 0 0 
447 3 1 -39.3862 -41.0932 -192.675 0 0 0 
444 3 1 -26.0214 -42.974 -199.379 0 0 0 
449 2 1 -28.4376 -40.5329 -193.168 0 0 0 
450 3 1 -24.8503 -41.5037 -192.343 0 0 0 
448 1 1 -31.965 -39.5937 -192.27 0 0 0 
456 3 1 -23.6793 -40.0334 -185.306 0 0 0 
451 1 1 -31.3795 -38.8585 -188.752 0 0 0 
452 2 1 -34.769 -38.917 -186.88 0 0 0 
453 3 1 -38.2151 -39.6229 -185.638 0 0 0 
454 1 1 -30.794 -38.1233 -185.233 0 0 0 
457 1 1 -30.2084 -37.3882 -181.715 0 0 0 
455 2 1 -27.2665 -39.0625 -186.131 0 0 0 
458 2 1 -33.598 -37.4466 -179.844 0 0 0 
459 3 1 -37.044 -38.1526 -178.601 0 0 0 
464 2 1 -32.4269 -35.9763 -172.807 0 0 0 
465 3 1 -35.873 -36.6823 -171.564 0 0 0 
460 1 1 -29.6229 -36.653 -178.196 0 0 0 
461 2 1 -26.0954 -37.5922 -179.094 0 0 0 
462 3 1 -22.5082 -38.563 -178.269 0 0 0 
463 1 1 -29.0374 -35.9178 -174.678 0 0 0 
466 1 1 -28.4519 -35.1827 -171.16 0 0 0 
467 2 1 -24.9244 -36.1219 -172.057 0 0 0 
468 3 1 -21.3372 -37.0927 -171.232 0 0 0 
470 2 1 -31.2558 -34.506 -165.77 0 0 0 
471 3 1 -34.7019 -35.2119 -164.528 0 0 0 
469 1 1 -27.8663 -34.4475 -167.641 0 0 0 
472 1 1 -27.2808 -33.7124 -164.123 0 0 0 
473 2 1 -23.7533 -34.6515 -165.02 0 0 0 
474 3 1 -20.1661 -35.6224 -164.195 0 0 0 
475 1 1 -26.6953 -32.9772 -160.604 0 0 0 
476 2 1 -30.0848 -33.0357 -158.733 0 0 0 
477 3 1 -33.5309 -33.7416 -157.491 0 0 0 
483 3 1 -32.3598 -32.2713 -150.454 0 0 0 
478 1 1 -26.1097 -32.242 -157.086 0 0 0 
479 2 1 -22.5823 -33.1812 -157.984 0 0 0 
481 1 1 -25.5242 -31.5069 -153.568 0 0 0 
482 2 1 -28.9137 -31.5653 -151.696 0 0 0 
484 1 1 -24.9387 -30.7717 -150.049 0 0 0 
485 2 1 -21.4112 -31.7109 -150.947 0 0 0 
480 3 1 -18.995 -34.1521 -157.159 0 0 0 
486 3 1 -17.824 -32.6817 -150.122 0 0 0 
489 3 1 -31.1887 -30.8009 -143.417 0 0 0 
487 1 1 -24.3531 -30.0365 -146.531 0 0 0 
488 2 1 -27.7427 -30.095 -144.66 0 0 0 
491 2 1 -20.2401 -30.2406 -143.91 0 0 0 
492 3 1 -16.6529 -31.2114 -143.085 0 0 0 
490 1 1 -23.7676 -29.3014 -143.012 0 0 0 
495 3 1 -30.0177 -29.3306 -136.38 0 0 0 
493 1 1 -23.1821 -28.5662 -139.494 0 0 0 
494 2 1 -26.5716 -28.6247 -137.623 0 0 0 
496 1 1 -22.5965 -27.831 -135.976 0 0 0 
499 1 1 -22.011 -27.0959 -132.457 0 0 0 
500 2 1 -25.4005 -27.1544 -130.586 0 0 0 
497 2 1 -19.0691 -28.7702 -136.873 0 0 0 
498 3 1 -15.4819 -29.7411 -136.048 0 0 0 
501 3 1 -28.8466 -27.8603 -129.344 0 0 0 
502 1 1 -21.4255 -26.3607 -128.939 0 0 0 
505 1 1 -20.84 -25.6256 -125.42 0 0 0 
506 2 1 -24.2295 -25.684 -123.549 0 0 0 
507 3 1 -27.6755 -26.39 -122.307 0 0 0 
508 1 1 -20.2544 -24.8904 -121.902 0 0 0 
503 2 1 -17.898 -27.2999 -129.837 0 0 0 
504 3 1 -14.3108 -28.2708 -129.011 0 0 0 
509 2 1 -16.7269 -25.8296 -122.8 0 0 0 
510 3 1 -13.1397 -26.8004 -121.975 0 0 0 
512 2 1 -23.0584 -24.2137 -116.512 0 0 0 
513 3 1 -26.5045 -24.9196 -115.27 0 0 0 
511 1 1 -19.6689 -24.1552 -118.384 0 0 0 
514 1 1 -19.0834 -23.4201 -114.865 0 0 0 
515 2 1 -15.5559 -24.3592 -115.763 0 0 0 
516 3 1 -11.9687 -25.3301 -114.938 0 0 0 
517 1 1 -18.4978 -22.6849 -111.347 0 0 0 
518 2 1 -21.8874 -22.7434 -109.475 0 0 0 
519 3 1 -25.3334 -23.4493 -108.233 0 0 0 
524 2 1 -20.7163 -21.2731 -102.439 0 0 0 
525 3 1 -24.1623 -21.979 -101.196 0 0 0 
520 1 1 -17.9123 -21.9497 -107.828 0 0 0 
521 2 1 -14.3848 -22.8889 -108.726 0 0 0 
522 3 1 -10.7976 -23.8598 -107.901 0 0 0 
523 1 1 -17.3268 -21.2146 -104.31 0 0 0 
526 1 1 -16.7412 -20.4794 -100.792 0 0 0 
527 2 1 -13.2138 -21.4186 -101.689 0 0 0 
528 3 1 -9.62656 -22.3895 -100.864 0 0 0 
531 3 1 -22.9913 -20.5086 -94.1596 0 0 0 
534 3 1 -8.4555 -20.9191 -93.8274 0 0 0 
529 1 1 -16.1557 -19.7443 -97.2732 0 0 0 
530 2 1 -19.5452 -19.8027 -95.4019 0 0 0 
532 1 1 -15.5702 -19.0091 -93.7548 0 0 0 
533 2 1 -12.0427 -19.9483 -94.6525 0 0 0 
535 1 1 -14.9846 -18.2739 -90.2364 0 0 0 
537 3 1 -21.8202 -19.0383 -87.1228 0 0 0 
543 3 1 -20.6492 -17.568 -80.0861 0 0 0 
536 2 1 -18.3742 -18.3324 -88.3651 0 0 0 
538 1 1 -14.3991 -17.5388 -86.718 0 0 0 
539 2 1 -10.8717 -18.4779 -87.6157 0 0 0 
541 1 1 -13.8136 -16.8036 -83.1996 0 0 0 
542 2 1 -17.2031 -16.8621 -81.3283 0 0 0 
540 3 1 -7.28443 -19.4488 -86.7906 0 0 0 
545 2 1 -9.70059 -17.0076 -80.5789 0 0 0 
544 1 1 -13.228 -16.0684 -79.6812 0 0 0 
547 1 1 -12.6425 -15.3333 -76.1628 0 0 0 
548 2 1 -16.032 -15.3918 -74.2915 0 0 0 
549 3 1 -19.4781 -16.0977 -73.0493 0 0 0 
550 1 1 -12.057 -14.5981 -72.6444 0 0 0 
546 3 1 -6.11337 -17.9785 -79.7538 0 0 0 
551 2 1 -8.52953 -15.5373 -73.5421 0 0 0 
552 3 1 -4.94231 -16.5082 -72.7169 0 0 0 
553 1 1 -11.4715 -13.8629 -69.126 0 0 0 
554 2 1 -14.861 -13.9214 -67.2547 0 0 0 
555 3 1 -18.3071 -14.6273 -66.0125 0 0 0 
556 1 1 -10.8859 -13.1278 -65.6076 0 0 0 
559 1 1 -10.3004 -12.3926 -62.0892 0 0 0 
560 2 1 -13.6899 -12.4511 -60.2179 0 0 0 
557 2 1 -7.35847 -14.067 -66.5053 0 0 0 
558 3 1 -3.77125 -15.0378 -65.6801 0 0 0 
561 3 1 -17.136 -13.157 -58.9757 0 0 0 
566 2 1 -12.5189 -10.9808 -53.1811 0 0 0 
567 3 1 -15.9649 -11.6867 -51.9389 0 0 0 
562 1 1 -9.71487 -11.6575 -58.5708 0 0 0 
563 2 1 -6.18741 -12.5966 -59.4685 0 0 0 
564 3 1 -2.60019 -13.5675 -58.6433 0 0 0 
565 1 1 -9.12934 -10.9223 -55.0524 0 0 0 
568 1 1 -8.54381 -10.1871 -51.534 0 0 0 
569 2 1 -5.01635 -11.1263 -52.4317 0 0 0 
570 3 1 -1.42913 -12.0972 -51.6065 0 0 0 
573 3 1 -14.7939 -10.2164 -44.9021 0 0 0 
576 3 1 -0.258066 -10.6268 -44.5697 0 0 0 
572 2 1 -11.3478 -9.51044 -46.1443 0 0 0 
571 1 1 -7.95828 -9.45196 -48.0156 0 0 0 
574 1 1 -7.37275 -8.7168 -44.4972 0 0 0 
575 2 1 -3.84528 -9.65598 -45.3949 0 0 0 
577 1 1 -6.78722 -7.98163 -40.9788 0 0 0 
578 2 1 -10.1767 -8.04012 -39.1075 0 0 0 
579 3 1 -13.6228 -8.74604 -37.8652 0 0 0 
585 3 1 -12.4517 -7.27571 -30.8284 0 0 0 
580 1 1 -6.20169 -7.24647 -37.4604 0 0 0 
581 2 1 -2.67422 -8.18566 -38.3581 0 0 0 
583 1 1 -5.61616 -6.51131 -33.942 0 0 0 
584 2 1 -9.00567 -6.56979 -32.0707 0 0 0 
586 1 1 -5.03063 -5.77614 -30.4236 0 0 0 
587 2 1 -1.50316 -6.71533 -31.3213 0 0 0 
582 3 1 0.912995 -9.15652 -37.5329 0 0 0 
588 3 1 2.08406 -7.68619 -30.4962 0 0 0 
591 3 1 -11.2807 -5.80539 -23.7916 0 0 0 
589 1 1 -4.4451 -5.04098 -26.9052 0 0 0 
590 2 1 -7.83461 -5.09946 -25.0339 0 0 0 
592 1 1 -3.85956 -4.30582 -23.3868 0 0 0 
593 2 1 -0.332099 -5.245 -24.2845 0 0 0 
594 3 1 3.25512 -6.21586 -23.4593 0 0 0 
597 3 1 -10.1096 -4.33506 -16.7548 0 0 0 
595 1 1 -3.27403 -3.57065 -19.8684 0 0 0 
596 2 1 -6.66355 -3.62914 -17.9971 0 0 0 
598 1 1 -2.6885 -2.83549 -16.35 0 0 0 
601 1 1 -2.10297 -2.10033 -12.8316 0 0 0 
602 2 1 -5.49249 -2.15881 -10.9603 0 0 0 
599 2 1 0.838961 -3.77467 -17.2477 0 0 0 
600 3 1 4.42618 -4.74554 -16.4225 0 0 0 
605 2 1 2.01002 -2.30435 -10.2109 0 0 0 
603 3 1 -8.93856 -2.86473 -9.71804 0 0 0 
604 1 1 -1.51744 -1.36516 -9.31319 0 0 0 
607 1 1 -0.931911 -0.629998 -5.79479 0 0 0 
608 2 1 -4.32143 -0.688482 -3.92353 0 0 0 
609 3 1 -7.7675 -1.3944 -2.68124 0 0 0 
606 3 1 5.59724 -3.27521 -9.38575 0 0 0 
611 2 1 3.18108 -0.83402 -3.17409 0 0 0 
612 3 1 6.7683 -1.80488 -2.34895 0 0 0 
610 1 1 -0.34638 0.105164 -2.27638 0 0 0 
618 3 1 7.93936 -0.334554 4.68786 0 0 0 
614 2 1 -3.15037 0.781844 3.11327 0 0 0 
615 3 1 -6.59644 0.075921 4.35556 0 0 0 
613 1 1 0.23915 0.840328 1.24202 0 0 0 
616 1 1 0.82468 1.57549 4.76042 0 0 0 
617 2 1 4.35215 0.636306 3.86271 0 0 0 
619 1 1 1.41021 2.31066 8.27882 0 0 0 
620 2 1 -1.97931 2.25217 10.1501 0 0 0 
621 3 1 -5.42537 1.54625 11.3924 0 0 0 
626 2 1 -0.808244 3.7225 17.1869 0 0 0 
627 3 1 -4.25431 3.01658 18.4292 0 0 0 
622 1 1 1.99574 3.04582 11.7972 0 0 0 
623 2 1 5.52321 2.10663 10.8995 0 0 0 
624 3 1 9.11042 1.13577 11.7247 0 0 0 
625 1 1 2.58127 3.78098 15.3156 0 0 0 
628 1 1 3.1668 4.51615 18.834 0 0 0 
629 2 1 6.69427 3.57696 17.9363 0 0 0 
630 3 1 10.2815 2.6061 18.7614 0 0 0 
633 3 1 -3.08325 4.4869 25.466 0 0 0 
631 1 1 3.75233 5.25131 22.3524 0 0 0 
632 2 1 0.362816 5.19283 24.2237 0 0 0 
634 1 1 4.33786 5.98647 25.8708 0 0 0 
635 2 1 7.86533 5.04729 24.9731 0 0 0 
637 1 1 4.9234 6.72164 29.3892 0 0 0 
636 3 1 11.4525 4.07643 25.7983 0 0 0 
639 3 1 -1.91219 5.95723 32.5028 0 0 0 
645 3 1 -0.74113 7.42756 39.5396 0 0 0 
638 2 1 1.53388 6.66315 31.2605 0 0 0 
640 1 1 5.50893 7.4568 32.9076 0 0 0 
641 2 1 9.03639 6.51761 32.0099 0 0 0 
643 1 1 6.09446 8.19196 36.426 0 0 0 
644 2 1 2.70494 8.13348 38.2973 0 0 0 
646 1 1 6.67999 8.92713 39.9444 0 0 0 
642 3 1 12.6236 5.54675 32.8351 0 0 0 
647 2 1 10.2074 7.98794 39.0467 0 0 0 
648 3 1 13.7947 7.01708 39.8719 0 0 0 
649 1 1 7.26552 9.66229 43.4628 0 0 0 
650 2 1 3.876 9.60381 45.3341 0 0 0 
651 3 1 0.429931 8.89788 46.5764 0 0 0 
653 2 1 11.3785 9.45827 46.0835 0 0 0 
654 3 1 14.9657 8.48741 46.9087 0 0 0 
652 1 1 7.85105 10.3974 46.9812 0 0 0 
660 3 1 16.1368 9.95773 53.9455 0 0 0 
655 1 1 8.43658 11.1326 50.4996 0 0 0 
656 2 1 5.04706 11.0741 52.3709 0 0 0 
657 3 1 1.60099 10.3682 53.6132 0 0 0 
658 1 1 9.02211 11.8678 54.018 0 0 0 
661 1 1 9.60764 12.6029 57.5364 0 0 0 
662 2 1 6.21812 12.5445 59.4077 0 0 0 
659 2 1 12.5496 10.9286 53.1203 0 0 0 
663 3 1 2.77205 11.8385 60.65 0 0 0 
668 2 1 7.38919 14.0148 66.4445 0 0 0 
669 3 1 3.94312 13.3089 67.6868 0 0 0 
664 1 1 10.1932 13.3381 61.0548 0 0 0 
665 2 1 13.7206 12.3989 60.1571 0 0 0 
666 3 1 17.3078 11.4281 60.9823 0 0 0 
667 1 1 10.7787 14.0733 64.5732 0 0 0 
670 1 1 11.3642 14.8084 68.0916 0 0 0 
671 2 1 14.8917 13.8692 67.1939 0 0 0 
672 3 1 18.4789 12.8984 68.0191 0 0 0 
674 2 1 8.56025 15.4851 73.4813 0 0 0 
675 3 1 5.11418 14.7792 74.7236 0 0 0 
673 1 1 11.9498 15.5436 71.61 0 0 0 
676 1 1 12.5353 16.2788 75.1284 0 0 0 
677 2 1 16.0628 15.3396 74.2307 0 0 0 
678 3 1 19.65 14.3687 75.0559 0 0 0 
679 1 1 13.1208 17.0139 78.6468 0 0 0 
680 2 1 9.73131 16.9554 80.5181 0 0 0 
681 3 1 6.28524 16.2495 81.7604 0 0 0 
687 3 1 7.4563 17.7198 88.7972 0 0 0 
682 1 1 13.7064 17.7491 82.1652 0 0 0 
683 2 1 17.2338 16.8099 81.2675 0 0 0 
685 1 1 14.2919 18.4842 85.6836 0 0 0 
686 2 1 10.9024 18.4258 87.5549 0 0 0 
688 1 1 14.8774 19.2194 89.202 0 0 0 
689 2 1 18.4049 18.2802 88.3043 0 0 0 
684 3 1 20.821 15.839 82.0927 0 0 0 
690 3 1 21.9921 17.3094 89.1295 0 0 0 
693 3 1 8.62736 19.1902 95.834 0 0 0 
691 1 1 15.4629 19.9546 92.7204 0 0 0 
692 2 1 12.0734 19.8961 94.5917 0 0 0 
695 2 1 19.5759 19.7506 95.3411 0 0 0 
696 3 1 23.1632 18.7797 96.1663 0 0 0 
694 1 1 16.0485 20.6897 96.2388 0 0 0 
697 1 1 16.634 21.4249 99.7572 0 0 0 
699 3 1 9.79842 20.6605 102.871 0 0 0 
698 2 1 13.2445 21.3664 101.628 0 0 0 
700 1 1 17.2195 22.1601 103.276 0 0 0 
703 1 1 17.8051 22.8952 106.794 0 0 0 
704 2 1 14.4155 22.8367 108.665 0 0 0 
705 3 1 10.9695 22.1308 109.907 0 0 0 
701 2 1 20.747 21.2209 102.378 0 0 0 
702 3 1 24.3342 20.25 103.203 0 0 0 
707 2 1 21.9181 22.6912 109.415 0 0 0 
706 1 1 18.3906 23.6304 110.312 0 0 0 
709 1 1 18.9761 24.3656 113.831 0 0 0 
710 2 1 15.5866 24.3071 115.702 0 0 0 
711 3 1 12.1405 23.6012 116.944 0 0 0 
712 1 1 19.5617 25.1007 117.349 0 0 0 
708 3 1 25.5053 21.7203 110.24 0 0 0 
713 2 1 23.0891 24.1615 116.451 0 0 0 
714 3 1 26.6763 23.1907 117.277 0 0 0 
716 2 1 16.7577 25.7774 122.739 0 0 0 
717 3 1 13.3116 25.0715 123.981 0 0 0 
722 2 1 17.9287 27.2477 129.776 0 0 0 
715 1 1 20.1472 25.8359 120.868 0 0 0 
718 1 1 20.7327 26.571 124.386 0 0 0 
719 2 1 24.2602 25.6319 123.488 0 0 0 
720 3 1 27.8474 24.661 124.313 0 0 0 
721 1 1 21.3182 27.3062 127.904 0 0 0 
723 3 1 14.4827 26.5418 131.018 0 0 0 
728 2 1 19.0998 28.7181 136.812 0 0 0 
729 3 1 15.6537 28.0121 138.055 0 0 0 
724 1 1 21.9038 28.0414 131.423 0 0 0 
725 2 1 25.4312 27.1022 130.525 0 0 0 