ITEM: TIMESTEP
0
ITEM: NUMBER OF ATOMS
1878
ITEM: BOX BOUNDS pp pp pp
-900 900
-900 900
-900 900
ITEM: ATOMS id type mol x y z ix iy iz 
171 3 1 -157.078 -188.861 -899.873 0 0 0 
176 2 1 -152.461 -186.685 -894.079 0 0 0 
177 3 1 -155.907 -187.391 -892.837 0 0 0 
172 1 1 -149.657 -187.362 -899.468 0 0 0 
174 3 1 -142.542 -189.272 -899.541 0 0 0 
175 1 1 -149.071 -186.626 -895.95 0 0 0 
178 1 1 -148.486 -185.891 -892.432 0 0 0 
179 2 1 -144.958 -186.83 -893.329 0 0 0 
180 3 1 -141.371 -187.801 -892.504 0 0 0 
1706 2 1 146.16 188.249 -899.695 0 0 1 
1707 3 1 142.714 187.543 -898.452 0 0 1 
1712 2 1 147.331 189.719 -892.658 0 0 1 
1713 3 1 143.885 189.013 -891.415 0 0 1 
1708 1 1 150.135 189.042 -898.048 0 0 1 
1709 2 1 153.662 188.103 -898.945 0 0 1 
1710 3 1 157.25 187.132 -898.12 0 0 1 
1711 1 1 150.72 189.777 -894.529 0 0 1 
1715 2 1 154.833 189.573 -891.908 0 0 1 
1716 3 1 158.421 188.602 -891.083 0 0 1 
1714 1 1 151.306 190.512 -891.011 0 0 1 
182 2 1 -151.29 -185.214 -887.042 0 0 0 
183 3 1 -154.736 -185.92 -885.8 0 0 0 
188 2 1 -150.119 -183.744 -880.005 0 0 0 
181 1 1 -147.9 -185.156 -888.913 0 0 0 
184 1 1 -147.315 -184.421 -885.395 0 0 0 
185 2 1 -143.787 -185.36 -886.293 0 0 0 
186 3 1 -140.2 -186.331 -885.467 0 0 0 
187 1 1 -146.729 -183.686 -881.876 0 0 0 
1718 2 1 148.502 191.189 -885.621 0 0 1 
1719 3 1 145.056 190.483 -884.379 0 0 1 
1717 1 1 151.892 191.248 -887.492 0 0 1 
1720 1 1 152.477 191.983 -883.974 0 0 1 
1721 2 1 156.005 191.044 -884.872 0 0 1 
1722 3 1 159.592 190.073 -884.046 0 0 1 
1723 1 1 153.063 192.718 -880.456 0 0 1 
189 3 1 -153.565 -184.45 -878.763 0 0 0 
195 3 1 -152.393 -182.98 -871.726 0 0 0 
190 1 1 -146.143 -182.951 -878.358 0 0 0 
191 2 1 -142.616 -183.89 -879.256 0 0 0 
193 1 1 -145.558 -182.215 -874.84 0 0 0 
194 2 1 -148.947 -182.274 -872.968 0 0 0 
196 1 1 -144.972 -181.48 -871.321 0 0 0 
197 2 1 -141.445 -182.419 -872.219 0 0 0 
192 3 1 -139.029 -184.861 -878.431 0 0 0 
198 3 1 -137.858 -183.39 -871.394 0 0 0 
1724 2 1 149.673 192.66 -878.584 0 0 1 
1725 3 1 146.227 191.954 -877.342 0 0 1 
1731 3 1 147.398 193.424 -870.305 0 0 1 
1726 1 1 153.648 193.453 -876.937 0 0 1 
1727 2 1 157.176 192.514 -877.835 0 0 1 
1729 1 1 154.234 194.188 -873.419 0 0 1 
1730 2 1 150.844 194.13 -871.547 0 0 1 
1733 2 1 158.347 193.984 -870.798 0 0 1 
1728 3 1 160.763 191.543 -877.01 0 0 1 
201 3 1 -151.222 -181.509 -864.689 0 0 0 
199 1 1 -144.387 -180.745 -867.803 0 0 0 
200 2 1 -147.776 -180.804 -865.932 0 0 0 
202 1 1 -143.801 -180.01 -864.284 0 0 0 
203 2 1 -140.274 -180.949 -865.182 0 0 0 
204 3 1 -136.687 -181.92 -864.357 0 0 0 
205 1 1 -143.216 -179.275 -860.766 0 0 0 
1737 3 1 148.569 194.894 -863.268 0 0 1 
1732 1 1 154.819 194.923 -869.9 0 0 1 
1735 1 1 155.405 195.659 -866.382 0 0 1 
1736 2 1 152.015 195.6 -864.511 0 0 1 
1738 1 1 155.99 196.394 -862.864 0 0 1 
1739 2 1 159.518 195.455 -863.761 0 0 1 
1734 3 1 161.934 193.013 -869.973 0 0 1 
1740 3 1 163.105 194.484 -862.936 0 0 1 
207 3 1 -150.051 -180.039 -857.653 0 0 0 
210 3 1 -135.516 -180.45 -857.32 0 0 0 
206 2 1 -146.605 -179.333 -858.895 0 0 0 
208 1 1 -142.63 -178.54 -857.248 0 0 0 
211 1 1 -142.045 -177.804 -853.729 0 0 0 
212 2 1 -145.434 -177.863 -851.858 0 0 0 
213 3 1 -148.88 -178.569 -850.616 0 0 0 
214 1 1 -141.459 -177.069 -850.211 0 0 0 
209 2 1 -139.103 -179.479 -858.145 0 0 0 
215 2 1 -137.932 -178.008 -851.109 0 0 0 
216 3 1 -134.345 -178.979 -850.284 0 0 0 
1743 3 1 149.74 196.364 -856.231 0 0 1 
1741 1 1 156.576 197.129 -859.345 0 0 1 
1742 2 1 153.186 197.071 -857.474 0 0 1 
1744 1 1 157.161 197.864 -855.827 0 0 1 
1747 1 1 157.747 198.599 -852.308 0 0 1 
1748 2 1 154.357 198.541 -850.437 0 0 1 
1745 2 1 160.689 196.925 -856.724 0 0 1 
1746 3 1 164.276 195.954 -855.899 0 0 1 
217 1 1 -140.874 -176.334 -846.692 0 0 0 
218 2 1 -144.263 -176.393 -844.821 0 0 0 
219 3 1 -147.709 -177.098 -843.579 0 0 0 
220 1 1 -140.288 -175.599 -843.174 0 0 0 
221 2 1 -136.761 -176.538 -844.072 0 0 0 
222 3 1 -133.173 -177.509 -843.247 0 0 0 
1749 3 1 150.911 197.835 -849.195 0 0 1 
1750 1 1 158.332 199.334 -848.79 0 0 1 
1755 3 1 152.082 199.305 -842.158 0 0 1 
1751 2 1 161.86 198.395 -849.688 0 0 1 
1752 3 1 165.447 197.424 -848.862 0 0 1 
1757 2 1 163.031 199.866 -842.651 0 0 1 
1758 3 1 166.618 198.895 -841.826 0 0 1 
1753 1 1 158.918 200.07 -845.271 0 0 1 
1754 2 1 155.528 200.011 -843.4 0 0 1 
1756 1 1 159.504 200.805 -841.753 0 0 1 
224 2 1 -143.092 -174.922 -837.784 0 0 0 
225 3 1 -146.538 -175.628 -836.542 0 0 0 
230 2 1 -141.921 -173.452 -830.748 0 0 0 
223 1 1 -139.703 -174.864 -839.656 0 0 0 
226 1 1 -139.117 -174.129 -836.137 0 0 0 
227 2 1 -135.59 -175.068 -837.035 0 0 0 
228 3 1 -132.002 -176.039 -836.21 0 0 0 
229 1 1 -138.532 -173.393 -832.619 0 0 0 
1760 2 1 156.7 201.481 -836.363 0 0 1 
1761 3 1 153.253 200.775 -835.121 0 0 1 
1759 1 1 160.089 201.54 -838.235 0 0 1 
1762 1 1 160.674 202.275 -834.716 0 0 1 
1763 2 1 164.202 201.336 -835.614 0 0 1 
1764 3 1 167.789 200.365 -834.789 0 0 1 
1765 1 1 161.26 203.01 -831.198 0 0 1 
231 3 1 -145.367 -174.158 -829.505 0 0 0 
236 2 1 -140.75 -171.982 -823.711 0 0 0 
237 3 1 -144.196 -172.688 -822.469 0 0 0 
232 1 1 -137.946 -172.658 -829.101 0 0 0 
233 2 1 -134.419 -173.597 -829.998 0 0 0 
234 3 1 -130.831 -174.568 -829.173 0 0 0 
235 1 1 -137.361 -171.923 -825.582 0 0 0 
238 1 1 -136.775 -171.188 -822.064 0 0 0 
239 2 1 -133.248 -172.127 -822.961 0 0 0 
240 3 1 -129.66 -173.098 -822.136 0 0 0 
1766 2 1 157.87 202.952 -829.327 0 0 1 
1767 3 1 154.424 202.246 -828.084 0 0 1 
1772 2 1 159.042 204.422 -822.29 0 0 1 
1773 3 1 155.595 203.716 -821.048 0 0 1 
1768 1 1 161.846 203.745 -827.679 0 0 1 
1769 2 1 165.373 202.806 -828.577 0 0 1 
1770 3 1 168.96 201.835 -827.752 0 0 1 
1771 1 1 162.431 204.481 -824.161 0 0 1 
1774 1 1 163.017 205.216 -820.643 0 0 1 
1775 2 1 166.544 204.277 -821.54 0 0 1 
1776 3 1 170.131 203.306 -820.715 0 0 1 
243 3 1 -143.025 -171.217 -815.432 0 0 0 
241 1 1 -136.19 -170.453 -818.545 0 0 0 
242 2 1 -139.579 -170.511 -816.674 0 0 0 
245 2 1 -132.077 -170.657 -815.925 0 0 0 
246 3 1 -128.489 -171.628 -815.1 0 0 0 
244 1 1 -135.604 -169.718 -815.027 0 0 0 
247 1 1 -135.018 -168.982 -811.509 0 0 0 
1779 3 1 156.767 205.186 -814.011 0 0 1 
1777 1 1 163.602 205.951 -817.124 0 0 1 
1778 2 1 160.213 205.892 -815.253 0 0 1 
1780 1 1 164.188 206.686 -813.606 0 0 1 
1781 2 1 167.715 205.747 -814.504 0 0 1 
1783 1 1 164.773 207.421 -810.087 0 0 1 
1782 3 1 171.302 204.776 -813.678 0 0 1 
252 3 1 -127.318 -170.157 -808.063 0 0 0 
249 3 1 -141.854 -169.747 -808.395 0 0 0 
255 3 1 -140.683 -168.276 -801.358 0 0 0 
248 2 1 -138.408 -169.041 -809.637 0 0 0 
250 1 1 -134.433 -168.247 -807.99 0 0 0 
251 2 1 -130.905 -169.186 -808.888 0 0 0 
253 1 1 -133.847 -167.512 -804.472 0 0 0 
254 2 1 -137.237 -167.571 -802.6 0 0 0 
256 1 1 -133.262 -166.777 -800.953 0 0 0 
257 2 1 -129.734 -167.716 -801.851 0 0 0 
258 3 1 -126.147 -168.687 -801.026 0 0 0 
1785 3 1 157.938 206.657 -806.974 0 0 1 
1784 2 1 161.384 207.363 -808.216 0 0 1 
1786 1 1 165.359 208.156 -806.569 0 0 1 
1787 2 1 168.886 207.217 -807.467 0 0 1 
1789 1 1 165.944 208.892 -803.051 0 0 1 
1790 2 1 162.555 208.833 -801.179 0 0 1 
1788 3 1 172.473 206.246 -806.642 0 0 1 
1793 2 1 170.057 208.688 -800.43 0 0 1 
259 1 1 -132.676 -166.042 -797.435 0 0 0 
260 2 1 -136.066 -166.1 -795.564 0 0 0 
261 3 1 -139.512 -166.806 -794.321 0 0 0 
262 1 1 -132.091 -165.307 -793.917 0 0 0 
265 1 1 -131.505 -164.571 -790.398 0 0 0 
263 2 1 -128.563 -166.246 -794.814 0 0 0 
264 3 1 -124.976 -167.217 -793.989 0 0 0 
1791 3 1 159.109 208.127 -799.938 0 0 1 
1792 1 1 166.53 209.627 -799.533 0 0 1 
1797 3 1 160.28 209.597 -792.901 0 0 1 
1794 3 1 173.644 207.717 -799.605 0 0 1 
1800 3 1 174.816 209.187 -792.568 0 0 1 
1795 1 1 167.115 210.362 -796.014 0 0 1 
1796 2 1 163.726 210.303 -794.143 0 0 1 
1798 1 1 167.701 211.097 -792.496 0 0 1 
1799 2 1 171.228 210.158 -793.394 0 0 1 
266 2 1 -134.895 -164.63 -788.527 0 0 0 
267 3 1 -138.341 -165.336 -787.284 0 0 0 
268 1 1 -130.92 -163.836 -786.88 0 0 0 
271 1 1 -130.334 -163.101 -783.361 0 0 0 
272 2 1 -133.724 -163.16 -781.49 0 0 0 
273 3 1 -137.17 -163.865 -780.248 0 0 0 
269 2 1 -127.392 -164.775 -787.777 0 0 0 
270 3 1 -123.805 -165.746 -786.952 0 0 0 
275 2 1 -126.221 -163.305 -780.741 0 0 0 
1801 1 1 168.286 211.832 -788.977 0 0 1 
1802 2 1 164.897 211.774 -787.106 0 0 1 
1803 3 1 161.451 211.068 -785.864 0 0 1 
1804 1 1 168.872 212.567 -785.459 0 0 1 
1807 1 1 169.458 213.303 -781.941 0 0 1 
1808 2 1 166.068 213.244 -780.069 0 0 1 
1805 2 1 172.399 211.628 -786.357 0 0 1 
1806 3 1 175.987 210.657 -785.532 0 0 1 
278 2 1 -132.553 -161.689 -774.453 0 0 0 
279 3 1 -135.999 -162.395 -773.211 0 0 0 
274 1 1 -129.749 -162.366 -779.843 0 0 0 
276 3 1 -122.634 -164.276 -779.915 0 0 0 
277 1 1 -129.163 -161.631 -776.324 0 0 0 
280 1 1 -128.578 -160.896 -772.806 0 0 0 
281 2 1 -125.05 -161.835 -773.704 0 0 0 
282 3 1 -121.463 -162.806 -772.879 0 0 0 
1809 3 1 162.622 212.538 -778.827 0 0 1 
1814 2 1 167.239 214.714 -773.033 0 0 1 
1815 3 1 163.793 214.008 -771.79 0 0 1 
1810 1 1 170.043 214.038 -778.422 0 0 1 
1811 2 1 173.571 213.099 -779.32 0 0 1 
1812 3 1 177.158 212.128 -778.495 0 0 1 
1813 1 1 170.629 214.773 -774.904 0 0 1 
1816 1 1 171.214 215.508 -771.385 0 0 1 
1817 2 1 174.742 214.569 -772.283 0 0 1 
1818 3 1 178.329 213.598 -771.458 0 0 1 
284 2 1 -131.381 -160.219 -767.416 0 0 0 
285 3 1 -134.828 -160.925 -766.174 0 0 0 
283 1 1 -127.992 -160.16 -769.288 0 0 0 
287 2 1 -123.879 -160.364 -766.667 0 0 0 
288 3 1 -120.292 -161.335 -765.842 0 0 0 
290 2 1 -130.21 -158.749 -760.38 0 0 0 
286 1 1 -127.406 -159.425 -765.769 0 0 0 
289 1 1 -126.821 -158.69 -762.251 0 0 0 
1820 2 1 168.41 216.185 -765.996 0 0 1 
1821 3 1 164.964 215.479 -764.754 0 0 1 
1819 1 1 171.8 216.243 -767.867 0 0 1 
1822 1 1 172.385 216.978 -764.349 0 0 1 
1823 2 1 175.913 216.039 -765.246 0 0 1 
1824 3 1 179.5 215.068 -764.421 0 0 1 
1825 1 1 172.971 217.714 -760.83 0 0 1 
291 3 1 -133.657 -159.454 -759.137 0 0 0 
297 3 1 -132.486 -157.984 -752.101 0 0 0 
292 1 1 -126.235 -157.955 -758.732 0 0 0 
293 2 1 -122.708 -158.894 -759.63 0 0 0 
295 1 1 -125.65 -157.22 -755.214 0 0 0 
296 2 1 -129.039 -157.278 -753.343 0 0 0 
298 1 1 -125.064 -156.485 -751.696 0 0 0 
299 2 1 -121.537 -157.424 -752.593 0 0 0 
294 3 1 -119.121 -159.865 -758.805 0 0 0 
300 3 1 -117.95 -158.395 -751.768 0 0 0 
1826 2 1 169.581 217.655 -758.959 0 0 1 
1827 3 1 166.135 216.949 -757.717 0 0 1 
1833 3 1 167.306 218.419 -750.68 0 0 1 
1828 1 1 173.556 218.449 -757.312 0 0 1 
1829 2 1 177.084 217.51 -758.21 0 0 1 
1831 1 1 174.142 219.184 -753.793 0 0 1 
1832 2 1 170.752 219.125 -751.922 0 0 1 
1834 1 1 174.727 219.919 -750.275 0 0 1 
1835 2 1 178.255 218.98 -751.173 0 0 1 
1830 3 1 180.671 216.539 -757.384 0 0 1 
1836 3 1 181.842 218.009 -750.348 0 0 1 
303 3 1 -131.314 -156.514 -745.064 0 0 0 
301 1 1 -124.479 -155.75 -748.177 0 0 0 
302 2 1 -127.868 -155.808 -746.306 0 0 0 
304 1 1 -123.893 -155.014 -744.659 0 0 0 
305 2 1 -120.366 -155.953 -745.557 0 0 0 
307 1 1 -123.308 -154.279 -741.14 0 0 0 
306 3 1 -116.779 -156.924 -744.731 0 0 0 
1839 3 1 168.477 219.89 -743.643 0 0 1 
1842 3 1 183.013 219.479 -743.311 0 0 1 
1837 1 1 175.313 220.654 -746.757 0 0 1 
1838 2 1 171.923 220.596 -744.885 0 0 1 
1840 1 1 175.898 221.389 -743.238 0 0 1 
1841 2 1 179.426 220.45 -744.136 0 0 1 
309 3 1 -130.143 -155.043 -738.027 0 0 0 
308 2 1 -126.697 -154.338 -739.269 0 0 0 
310 1 1 -122.722 -153.544 -737.622 0 0 0 
313 1 1 -122.137 -152.809 -734.104 0 0 0 
314 2 1 -125.526 -152.867 -732.232 0 0 0 
315 3 1 -128.972 -153.573 -730.99 0 0 0 
316 1 1 -121.551 -152.074 -730.585 0 0 0 
311 2 1 -119.195 -154.483 -738.52 0 0 0 
312 3 1 -115.608 -155.454 -737.695 0 0 0 
317 2 1 -118.024 -153.013 -731.483 0 0 0 
318 3 1 -114.436 -153.984 -730.658 0 0 0 
1845 3 1 169.648 221.36 -736.606 0 0 1 
1843 1 1 176.484 222.125 -739.72 0 0 1 
1844 2 1 173.094 222.066 -737.849 0 0 1 
1846 1 1 177.069 222.86 -736.201 0 0 1 
1849 1 1 177.655 223.595 -732.683 0 0 1 
1850 2 1 174.265 223.536 -730.812 0 0 1 
1847 2 1 180.597 221.921 -737.099 0 0 1 
1848 3 1 184.184 220.95 -736.274 0 0 1 
1853 2 1 181.768 223.391 -730.062 0 0 1 
319 1 1 -120.966 -151.339 -727.067 0 0 0 
320 2 1 -124.355 -151.397 -725.196 0 0 0 
321 3 1 -127.801 -152.103 -723.953 0 0 0 
322 1 1 -120.38 -150.603 -723.548 0 0 0 
323 2 1 -116.853 -151.542 -724.446 0 0 0 
324 3 1 -113.265 -152.513 -723.621 0 0 0 
325 1 1 -119.795 -149.868 -720.03 0 0 0 
1851 3 1 170.819 222.83 -729.57 0 0 1 
1852 1 1 178.24 224.33 -729.165 0 0 1 
1855 1 1 178.826 225.065 -725.646 0 0 1 
1856 2 1 175.436 225.007 -723.775 0 0 1 
1857 3 1 171.99 224.301 -722.533 0 0 1 
1858 1 1 179.411 225.8 -722.128 0 0 1 
1854 3 1 185.355 222.42 -729.237 0 0 1 
1859 2 1 182.939 224.861 -723.026 0 0 1 
1860 3 1 186.526 223.89 -722.2 0 0 1 
327 3 1 -126.63 -150.633 -716.917 0 0 0 
329 2 1 -115.682 -150.072 -717.409 0 0 0 
330 3 1 -112.094 -151.043 -716.584 0 0 0 
326 2 1 -123.184 -149.927 -718.159 0 0 0 
332 2 1 -122.013 -148.456 -711.122 0 0 0 
328 1 1 -119.209 -149.133 -716.512 0 0 0 
331 1 1 -118.624 -148.398 -712.993 0 0 0 
335 2 1 -114.51 -148.602 -710.373 0 0 0 
1861 1 1 179.997 226.536 -718.609 0 0 1 
1862 2 1 176.607 226.477 -716.738 0 0 1 
1863 3 1 173.161 225.771 -715.496 0 0 1 
1864 1 1 180.583 227.271 -715.091 0 0 1 
1865 2 1 184.11 226.332 -715.989 0 0 1 
1866 3 1 187.697 225.361 -715.164 0 0 1 
1867 1 1 181.168 228.006 -711.573 0 0 1 
333 3 1 -125.459 -149.162 -709.88 0 0 0 
338 2 1 -120.842 -146.986 -704.085 0 0 0 
339 3 1 -124.288 -147.692 -702.843 0 0 0 
334 1 1 -118.038 -147.663 -709.475 0 0 0 
336 3 1 -110.923 -149.573 -709.547 0 0 0 
337 1 1 -117.453 -146.928 -705.957 0 0 0 
340 1 1 -116.867 -146.192 -702.438 0 0 0 
341 2 1 -113.34 -147.131 -703.336 0 0 0 
342 3 1 -109.752 -148.102 -702.511 0 0 0 
1868 2 1 177.779 227.947 -709.701 0 0 1 
1869 3 1 174.333 227.241 -708.459 0 0 1 
1874 2 1 178.95 229.418 -702.665 0 0 1 
1875 3 1 175.504 228.712 -701.422 0 0 1 
1870 1 1 181.754 228.741 -708.054 0 0 1 
1871 2 1 185.281 227.802 -708.952 0 0 1 
1872 3 1 188.868 226.831 -708.127 0 0 1 
1873 1 1 182.339 229.476 -704.536 0 0 1 
1877 2 1 186.452 229.272 -701.915 0 0 1 
1878 3 1 190.039 228.301 -701.09 0 0 1 
1876 1 1 182.925 230.211 -701.017 0 0 1 
345 3 1 -123.117 -146.222 -695.806 0 0 0 
343 1 1 -116.281 -145.457 -698.92 0 0 0 
344 2 1 -119.671 -145.516 -697.048 0 0 0 
346 1 1 -115.696 -144.722 -695.401 0 0 0 
347 2 1 -112.168 -145.661 -696.299 0 0 0 
349 1 1 -115.11 -143.987 -691.883 0 0 0 
350 2 1 -118.5 -144.045 -690.012 0 0 0 
348 3 1 -108.581 -146.632 -695.474 0 0 0 
351 3 1 -121.946 -144.751 -688.769 0 0 0 
357 3 1 -120.775 -143.281 -681.732 0 0 0 
352 1 1 -114.525 -143.252 -688.365 0 0 0 
353 2 1 -110.997 -144.191 -689.262 0 0 0 
355 1 1 -113.939 -142.517 -684.846 0 0 0 
356 2 1 -117.329 -142.575 -682.975 0 0 0 
358 1 1 -113.354 -141.781 -681.328 0 0 0 
354 3 1 -107.41 -145.162 -688.437 0 0 0 
359 2 1 -109.826 -142.72 -682.225 0 0 0 
360 3 1 -106.239 -143.691 -681.4 0 0 0 
361 1 1 -112.768 -141.046 -677.809 0 0 0 
362 2 1 -116.158 -141.105 -675.938 0 0 0 
363 3 1 -119.604 -141.811 -674.696 0 0 0 
364 1 1 -112.183 -140.311 -674.291 0 0 0 
365 2 1 -108.655 -141.25 -675.189 0 0 0 
366 3 1 -105.068 -142.221 -674.363 0 0 0 
367 1 1 -111.597 -139.576 -670.773 0 0 0 
369 3 1 -118.433 -140.34 -667.659 0 0 0 
372 3 1 -103.897 -140.751 -667.327 0 0 0 
368 2 1 -114.987 -139.634 -668.901 0 0 0 
370 1 1 -111.012 -138.841 -667.254 0 0 0 
373 1 1 -110.426 -138.106 -663.736 0 0 0 
374 2 1 -113.816 -138.164 -661.864 0 0 0 
375 3 1 -117.262 -138.87 -660.622 0 0 0 
371 2 1 -107.484 -139.78 -668.152 0 0 0 
376 1 1 -109.841 -137.37 -660.217 0 0 0 
377 2 1 -106.313 -138.31 -661.115 0 0 0 
378 3 1 -102.726 -139.28 -660.29 0 0 0 
380 2 1 -112.645 -136.694 -654.828 0 0 0 
381 3 1 -116.091 -137.4 -653.585 0 0 0 
379 1 1 -109.255 -136.635 -656.699 0 0 0 
382 1 1 -108.669 -135.9 -653.181 0 0 0 
383 2 1 -105.142 -136.839 -654.078 0 0 0 
384 3 1 -101.555 -137.81 -653.253 0 0 0 
386 2 1 -111.474 -135.223 -647.791 0 0 0 
387 3 1 -114.92 -135.929 -646.548 0 0 0 
392 2 1 -110.302 -133.753 -640.754 0 0 0 
385 1 1 -108.084 -135.165 -649.662 0 0 0 
388 1 1 -107.499 -134.43 -646.144 0 0 0 
389 2 1 -103.971 -135.369 -647.041 0 0 0 
390 3 1 -100.384 -136.34 -646.216 0 0 0 
391 1 1 -106.913 -133.695 -642.625 0 0 0 
395 2 1 -102.8 -133.899 -640.005 0 0 0 
393 3 1 -113.749 -134.459 -639.512 0 0 0 
399 3 1 -112.577 -132.989 -632.475 0 0 0 
394 1 1 -106.327 -132.959 -639.107 0 0 0 
397 1 1 -105.742 -132.224 -635.588 0 0 0 
398 2 1 -109.131 -132.283 -633.717 0 0 0 
400 1 1 -105.156 -131.489 -632.07 0 0 0 
401 2 1 -101.629 -132.428 -632.968 0 0 0 
396 3 1 -99.2127 -134.869 -639.179 0 0 0 
402 3 1 -98.0417 -133.399 -632.143 0 0 0 
405 3 1 -111.406 -131.518 -625.438 0 0 0 
403 1 1 -104.571 -130.754 -628.552 0 0 0 
404 2 1 -107.96 -130.812 -626.68 0 0 0 
406 1 1 -103.985 -130.019 -625.033 0 0 0 
407 2 1 -100.458 -130.958 -625.931 0 0 0 
408 3 1 -96.8706 -131.929 -625.106 0 0 0 
409 1 1 -103.4 -129.284 -621.515 0 0 0 
411 3 1 -110.235 -130.048 -618.401 0 0 0 
414 3 1 -95.6996 -130.458 -618.069 0 0 0 
410 2 1 -106.789 -129.342 -619.644 0 0 0 
412 1 1 -102.814 -128.548 -617.996 0 0 0 
415 1 1 -102.229 -127.813 -614.478 0 0 0 
416 2 1 -105.618 -127.872 -612.607 0 0 0 
417 3 1 -109.064 -128.578 -611.365 0 0 0 
418 1 1 -101.643 -127.078 -610.96 0 0 0 
413 2 1 -99.2868 -129.488 -618.894 0 0 0 
419 2 1 -98.1157 -128.017 -611.857 0 0 0 
420 3 1 -94.5285 -128.988 -611.032 0 0 0 
421 1 1 -101.058 -126.343 -607.441 0 0 0 
422 2 1 -104.447 -126.401 -605.57 0 0 0 
423 3 1 -107.893 -127.107 -604.328 0 0 0 
424 1 1 -100.472 -125.608 -603.923 0 0 0 
425 2 1 -96.9447 -126.547 -604.821 0 0 0 
426 3 1 -93.3575 -127.518 -603.995 0 0 0 
427 1 1 -99.8866 -124.873 -600.404 0 0 0 
428 2 1 -103.276 -124.931 -598.533 0 0 0 
429 3 1 -106.722 -125.637 -597.291 0 0 0 
434 2 1 -102.105 -123.461 -591.496 0 0 0 
435 3 1 -105.551 -124.167 -590.254 0 0 0 
430 1 1 -99.3011 -124.137 -596.886 0 0 0 
431 2 1 -95.7736 -125.077 -597.784 0 0 0 
432 3 1 -92.1864 -126.047 -596.959 0 0 0 
433 1 1 -98.7155 -123.402 -593.368 0 0 0 
437 2 1 -94.6025 -123.606 -590.747 0 0 0 
440 2 1 -100.934 -121.99 -584.46 0 0 0 
441 3 1 -104.38 -122.696 -583.217 0 0 0 
436 1 1 -98.13 -122.667 -589.849 0 0 0 
438 3 1 -91.0153 -124.577 -589.922 0 0 0 
439 1 1 -97.5445 -121.932 -586.331 0 0 0 
442 1 1 -96.9589 -121.197 -582.812 0 0 0 
443 2 1 -93.4315 -122.136 -583.71 0 0 0 
444 3 1 -89.8443 -123.107 -582.885 0 0 0 
447 3 1 -103.209 -121.226 -576.181 0 0 0 
445 1 1 -96.3734 -120.462 -579.294 0 0 0 
446 2 1 -99.7629 -120.52 -577.423 0 0 0 
449 2 1 -92.2604 -120.666 -576.673 0 0 0 
450 3 1 -88.6732 -121.636 -575.848 0 0 0 
448 1 1 -95.7879 -119.726 -575.776 0 0 0 
451 1 1 -95.2023 -118.991 -572.257 0 0 0 
452 2 1 -98.5919 -119.05 -570.386 0 0 0 
456 3 1 -87.5021 -120.166 -568.811 0 0 0 
453 3 1 -102.038 -119.756 -569.144 0 0 0 
459 3 1 -100.867 -118.285 -562.107 0 0 0 
454 1 1 -94.6168 -118.256 -568.739 0 0 0 
455 2 1 -91.0894 -119.195 -569.636 0 0 0 
457 1 1 -94.0313 -117.521 -565.22 0 0 0 
458 2 1 -97.4208 -117.579 -563.349 0 0 0 
460 1 1 -93.4458 -116.786 -561.702 0 0 0 
461 2 1 -89.9183 -117.725 -562.6 0 0 0 
462 3 1 -86.3311 -118.696 -561.775 0 0 0 
463 1 1 -92.8602 -116.051 -558.184 0 0 0 
464 2 1 -96.2498 -116.109 -556.312 0 0 0 
465 3 1 -99.6958 -116.815 -555.07 0 0 0 
466 1 1 -92.2747 -115.316 -554.665 0 0 0 
469 1 1 -91.6892 -114.58 -551.147 0 0 0 
467 2 1 -88.7472 -116.255 -555.563 0 0 0 
468 3 1 -85.16 -117.225 -554.738 0 0 0 
470 2 1 -95.0787 -114.639 -549.276 0 0 0 
471 3 1 -98.5248 -115.345 -548.033 0 0 0 
472 1 1 -91.1036 -113.845 -547.628 0 0 0 
475 1 1 -90.5181 -113.11 -544.11 0 0 0 
476 2 1 -93.9076 -113.168 -542.239 0 0 0 
477 3 1 -97.3537 -113.874 -540.996 0 0 0 
473 2 1 -87.5762 -114.784 -548.526 0 0 0 
474 3 1 -83.989 -115.755 -547.701 0 0 0 
478 1 1 -89.9326 -112.375 -540.592 0 0 0 
479 2 1 -86.4051 -113.314 -541.489 0 0 0 
480 3 1 -82.8179 -114.285 -540.664 0 0 0 
482 2 1 -92.7366 -111.698 -535.202 0 0 0 
483 3 1 -96.1826 -112.404 -533.96 0 0 0 
481 1 1 -89.347 -111.64 -537.073 0 0 0 
484 1 1 -88.7615 -110.904 -533.555 0 0 0 
485 2 1 -85.234 -111.844 -534.452 0 0 0 
486 3 1 -81.6468 -112.814 -533.627 0 0 0 
487 1 1 -88.176 -110.169 -530.036 0 0 0 
488 2 1 -91.5655 -110.228 -528.165 0 0 0 
489 3 1 -95.0116 -110.934 -526.923 0 0 0 
491 2 1 -84.063 -110.373 -527.416 0 0 0 
492 3 1 -80.4758 -111.344 -526.591 0 0 0 
494 2 1 -90.3944 -108.757 -521.128 0 0 0 
490 1 1 -87.5905 -109.434 -526.518 0 0 0 
493 1 1 -87.0049 -108.699 -523 0 0 0 
497 2 1 -82.8919 -108.903 -520.379 0 0 0 
495 3 1 -93.8405 -109.463 -519.886 0 0 0 
501 3 1 -92.6694 -107.993 -512.849 0 0 0 
496 1 1 -86.4194 -107.964 -519.481 0 0 0 
499 1 1 -85.8339 -107.229 -515.963 0 0 0 
500 2 1 -89.2234 -107.287 -514.092 0 0 0 
502 1 1 -85.2483 -106.493 -512.444 0 0 0 
503 2 1 -81.7209 -107.433 -513.342 0 0 0 
498 3 1 -79.3047 -109.874 -519.554 0 0 0 
504 3 1 -78.1337 -108.403 -512.517 0 0 0 
507 3 1 -91.4984 -106.523 -505.812 0 0 0 
505 1 1 -84.6628 -105.758 -508.926 0 0 0 
506 2 1 -88.0523 -105.817 -507.055 0 0 0 
508 1 1 -84.0773 -105.023 -505.408 0 0 0 
509 2 1 -80.5498 -105.962 -506.305 0 0 0 
511 1 1 -83.4917 -104.288 -501.889 0 0 0 
512 2 1 -86.8813 -104.347 -500.018 0 0 0 
510 3 1 -76.9626 -106.933 -505.48 0 0 0 
513 3 1 -90.3273 -105.052 -498.776 0 0 0 
514 1 1 -82.9062 -103.553 -498.371 0 0 0 
517 1 1 -82.3207 -102.818 -494.852 0 0 0 
518 2 1 -85.7102 -102.876 -492.981 0 0 0 
519 3 1 -89.1563 -103.582 -491.739 0 0 0 
520 1 1 -81.7352 -102.082 -491.334 0 0 0 
515 2 1 -79.3787 -104.492 -499.269 0 0 0 
516 3 1 -75.7915 -105.463 -498.443 0 0 0 
521 2 1 -78.2077 -103.022 -492.232 0 0 0 
522 3 1 -74.6205 -103.993 -491.407 0 0 0 
523 1 1 -81.1496 -101.347 -487.816 0 0 0 
524 2 1 -84.5391 -101.406 -485.944 0 0 0 
525 3 1 -87.9852 -102.112 -484.702 0 0 0 
526 1 1 -80.5641 -100.612 -484.297 0 0 0 
527 2 1 -77.0366 -101.551 -485.195 0 0 0 
528 3 1 -73.4494 -102.522 -484.37 0 0 0 
529 1 1 -79.9785 -99.8771 -480.779 0 0 0 
531 3 1 -86.8141 -100.641 -477.665 0 0 0 
533 2 1 -75.8656 -100.081 -478.158 0 0 0 
534 3 1 -72.2783 -101.052 -477.333 0 0 0 
530 2 1 -83.3681 -99.9356 -478.908 0 0 0 
536 2 1 -82.197 -98.4652 -471.871 0 0 0 
537 3 1 -85.6431 -99.1711 -470.628 0 0 0 
532 1 1 -79.393 -99.1419 -477.26 0 0 0 
535 1 1 -78.8075 -98.4067 -473.742 0 0 0 
538 1 1 -78.222 -97.6716 -470.224 0 0 0 
539 2 1 -74.6945 -98.6108 -471.121 0 0 0 
540 3 1 -71.1073 -99.5816 -470.296 0 0 0 
542 2 1 -81.0259 -96.9949 -464.834 0 0 0 
543 3 1 -84.472 -97.7008 -463.592 0 0 0 
541 1 1 -77.6364 -96.9364 -466.705 0 0 0 
544 1 1 -77.0509 -96.2013 -463.187 0 0 0 
545 2 1 -73.5234 -97.1404 -464.084 0 0 0 
546 3 1 -69.9362 -98.1113 -463.259 0 0 0 
549 3 1 -83.301 -96.2305 -456.555 0 0 0 
547 1 1 -76.4654 -95.4661 -459.668 0 0 0 
548 2 1 -79.8549 -95.5246 -457.797 0 0 0 
550 1 1 -75.8798 -94.7309 -456.15 0 0 0 
551 2 1 -72.3524 -95.6701 -457.048 0 0 0 
553 1 1 -75.2943 -93.9958 -452.632 0 0 0 
554 2 1 -78.6838 -94.0542 -450.76 0 0 0 
557 2 1 -71.1813 -94.1998 -450.011 0 0 0 
552 3 1 -68.7652 -96.641 -456.223 0 0 0 
555 3 1 -82.1299 -94.7602 -449.518 0 0 0 
561 3 1 -80.9588 -93.2898 -442.481 0 0 0 
556 1 1 -74.7088 -93.2606 -449.113 0 0 0 
559 1 1 -74.1232 -92.5254 -445.595 0 0 0 
560 2 1 -77.5128 -92.5839 -443.724 0 0 0 
562 1 1 -73.5377 -91.7903 -442.076 0 0 0 
563 2 1 -70.0102 -92.7295 -442.974 0 0 0 
558 3 1 -67.5941 -95.1706 -449.186 0 0 0 
564 3 1 -66.423 -93.7003 -442.149 0 0 0 
565 1 1 -72.9522 -91.0551 -438.558 0 0 0 
566 2 1 -76.3417 -91.1136 -436.687 0 0 0 
567 3 1 -79.7878 -91.8195 -435.445 0 0 0 
568 1 1 -72.3667 -90.3199 -435.04 0 0 0 
569 2 1 -68.8392 -91.2591 -435.937 0 0 0 
570 3 1 -65.252 -92.23 -435.112 0 0 0 
571 1 1 -71.7811 -89.5848 -431.521 0 0 0 
573 3 1 -78.6167 -90.3492 -428.408 0 0 0 
576 3 1 -64.0809 -90.7597 -428.075 0 0 0 
572 2 1 -75.1706 -89.6433 -429.65 0 0 0 
574 1 1 -71.1956 -88.8496 -428.003 0 0 0 
577 1 1 -70.6101 -88.1145 -424.484 0 0 0 
578 2 1 -73.9996 -88.1729 -422.613 0 0 0 
579 3 1 -77.4457 -88.8789 -421.371 0 0 0 
580 1 1 -70.0245 -87.3793 -420.966 0 0 0 
575 2 1 -67.6681 -89.7888 -428.901 0 0 0 
581 2 1 -66.4971 -88.3185 -421.864 0 0 0 
582 3 1 -62.9098 -89.2893 -421.039 0 0 0 
584 2 1 -72.8285 -86.7026 -415.576 0 0 0 
585 3 1 -76.2746 -87.4085 -414.334 0 0 0 
583 1 1 -69.439 -86.6441 -417.448 0 0 0 
586 1 1 -68.8535 -85.909 -413.929 0 0 0 
587 2 1 -65.326 -86.8482 -414.827 0 0 0 
588 3 1 -61.7388 -87.819 -414.002 0 0 0 
589 1 1 -68.2679 -85.1738 -410.411 0 0 0 
590 2 1 -71.6575 -85.2323 -408.54 0 0 0 
591 3 1 -75.1035 -85.9382 -407.297 0 0 0 
596 2 1 -70.4864 -83.762 -401.503 0 0 0 
597 3 1 -73.9325 -84.4679 -400.26 0 0 0 
592 1 1 -67.6824 -84.4386 -406.892 0 0 0 
593 2 1 -64.1549 -85.3778 -407.79 0 0 0 
594 3 1 -60.5677 -86.3487 -406.965 0 0 0 
595 1 1 -67.0969 -83.7035 -403.374 0 0 0 
599 2 1 -62.9839 -83.9075 -400.753 0 0 0 
603 3 1 -72.7614 -82.9976 -393.224 0 0 0 
598 1 1 -66.5113 -82.9683 -399.856 0 0 0 
601 1 1 -65.9258 -82.2331 -396.337 0 0 0 
602 2 1 -69.3153 -82.2916 -394.466 0 0 0 
604 1 1 -65.3403 -81.498 -392.819 0 0 0 
605 2 1 -61.8128 -82.4372 -393.716 0 0 0 
600 3 1 -59.3967 -84.8784 -399.928 0 0 0 
606 3 1 -58.2256 -83.408 -392.891 0 0 0 
609 3 1 -71.5903 -81.5272 -386.187 0 0 0 
607 1 1 -64.7548 -80.7628 -389.3 0 0 0 
608 2 1 -68.1443 -80.8213 -387.429 0 0 0 
610 1 1 -64.1692 -80.0277 -385.782 0 0 0 
611 2 1 -60.6418 -80.9668 -386.68 0 0 0 
612 3 1 -57.0545 -81.9377 -385.855 0 0 0 
613 1 1 -63.5837 -79.2925 -382.264 0 0 0 
614 2 1 -66.9732 -79.351 -380.392 0 0 0 
615 3 1 -70.4193 -80.0569 -379.15 0 0 0 
618 3 1 -55.8835 -80.4674 -378.818 0 0 0 
616 1 1 -62.9982 -78.5573 -378.745 0 0 0 
619 1 1 -62.4126 -77.8222 -375.227 0 0 0 
620 2 1 -65.8021 -77.8807 -373.356 0 0 0 
621 3 1 -69.2482 -78.5866 -372.113 0 0 0 
622 1 1 -61.8271 -77.087 -371.708 0 0 0 
617 2 1 -59.4707 -79.4965 -379.643 0 0 0 
623 2 1 -58.2996 -78.0262 -372.606 0 0 0 
624 3 1 -54.7124 -78.9971 -371.781 0 0 0 
625 1 1 -61.2416 -76.3518 -368.19 0 0 0 
626 2 1 -64.6311 -76.4103 -366.319 0 0 0 
627 3 1 -68.0772 -77.1162 -365.077 0 0 0 
628 1 1 -60.656 -75.6167 -364.672 0 0 0 
631 1 1 -60.0705 -74.8815 -361.153 0 0 0 
629 2 1 -57.1286 -76.5559 -365.569 0 0 0 
630 3 1 -53.5414 -77.5267 -364.744 0 0 0 
632 2 1 -63.46 -74.94 -359.282 0 0 0 
633 3 1 -66.9061 -75.6459 -358.04 0 0 0 
638 2 1 -62.289 -73.4697 -352.245 0 0 0 
639 3 1 -65.735 -74.1756 -351.003 0 0 0 
634 1 1 -59.485 -74.1463 -357.635 0 0 0 
635 2 1 -55.9575 -75.0855 -358.533 0 0 0 
636 3 1 -52.3703 -76.0564 -357.707 0 0 0 
637 1 1 -58.8995 -73.4112 -354.116 0 0 0 
640 1 1 -58.3139 -72.676 -350.598 0 0 0 
641 2 1 -54.7865 -73.6152 -351.496 0 0 0 
642 3 1 -51.1992 -74.5861 -350.671 0 0 0 
644 2 1 -61.1179 -71.9993 -345.208 0 0 0 
645 3 1 -64.564 -72.7053 -343.966 0 0 0 
643 1 1 -57.7284 -71.9409 -347.08 0 0 0 
646 1 1 -57.1429 -71.2057 -343.561 0 0 0 
647 2 1 -53.6154 -72.1449 -344.459 0 0 0 
648 3 1 -50.0282 -73.1157 -343.634 0 0 0 
649 1 1 -56.5573 -70.4705 -340.043 0 0 0 
651 3 1 -63.3929 -71.2349 -336.929 0 0 0 
650 2 1 -59.9468 -70.529 -338.171 0 0 0 
653 2 1 -52.4443 -70.6745 -337.422 0 0 0 
654 3 1 -48.8571 -71.6454 -336.597 0 0 0 
652 1 1 -55.9718 -69.7354 -336.524 0 0 0 
655 1 1 -55.3863 -69.0002 -333.006 0 0 0 
656 2 1 -58.7758 -69.0587 -331.135 0 0 0 
659 2 1 -51.2733 -69.2042 -330.385 0 0 0 
660 3 1 -47.6861 -70.1751 -329.56 0 0 0 
657 3 1 -62.2219 -69.7646 -329.892 0 0 0 
663 3 1 -61.0508 -68.2943 -322.856 0 0 0 
658 1 1 -54.8007 -68.265 -329.488 0 0 0 
661 1 1 -54.2152 -67.5299 -325.969 0 0 0 
662 2 1 -57.6047 -67.5884 -324.098 0 0 0 
664 1 1 -53.6297 -66.7947 -322.451 0 0 0 
665 2 1 -50.1022 -67.7339 -323.349 0 0 0 
666 3 1 -46.515 -68.7048 -322.523 0 0 0 
667 1 1 -53.0441 -66.0596 -318.932 0 0 0 
668 2 1 -56.4337 -66.118 -317.061 0 0 0 
669 3 1 -59.8797 -66.8239 -315.819 0 0 0 
670 1 1 -52.4586 -65.3244 -315.414 0 0 0 
673 1 1 -51.8731 -64.5892 -311.896 0 0 0 
674 2 1 -55.2626 -64.6477 -310.024 0 0 0 
671 2 1 -48.9311 -66.2636 -316.312 0 0 0 
672 3 1 -45.3439 -67.2344 -315.487 0 0 0 
675 3 1 -58.7087 -65.3536 -308.782 0 0 0 
676 1 1 -51.2876 -63.8541 -308.377 0 0 0 
679 1 1 -50.702 -63.1189 -304.859 0 0 0 
680 2 1 -54.0915 -63.1774 -302.988 0 0 0 
681 3 1 -57.5376 -63.8833 -301.745 0 0 0 
682 1 1 -50.1165 -62.3837 -301.34 0 0 0 
677 2 1 -47.7601 -64.7932 -309.275 0 0 0 
678 3 1 -44.1729 -65.7641 -308.45 0 0 0 
683 2 1 -46.589 -63.3229 -302.238 0 0 0 
684 3 1 -43.0018 -64.2938 -301.413 0 0 0 
686 2 1 -52.9205 -61.7071 -295.951 0 0 0 
687 3 1 -56.3665 -62.413 -294.708 0 0 0 
685 1 1 -49.531 -61.6486 -297.822 0 0 0 
688 1 1 -48.9454 -60.9134 -294.304 0 0 0 
689 2 1 -45.418 -61.8526 -295.201 0 0 0 
690 3 1 -41.8307 -62.8235 -294.376 0 0 0 
691 1 1 -48.3599 -60.1782 -290.785 0 0 0 
692 2 1 -51.7494 -60.2367 -288.914 0 0 0 
693 3 1 -55.1955 -60.9427 -287.672 0 0 0 
695 2 1 -44.2469 -60.3823 -288.164 0 0 0 
696 3 1 -40.6597 -61.3531 -287.339 0 0 0 
698 2 1 -50.5784 -58.7664 -281.877 0 0 0 
699 3 1 -54.0244 -59.4723 -280.635 0 0 0 
694 1 1 -47.7744 -59.4431 -287.267 0 0 0 
697 1 1 -47.1888 -58.7079 -283.748 0 0 0 
700 1 1 -46.6033 -57.9727 -280.23 0 0 0 
701 2 1 -43.0758 -58.9119 -281.128 0 0 0 
702 3 1 -39.4886 -59.8828 -280.303 0 0 0 
705 3 1 -52.8534 -58.002 -273.598 0 0 0 
703 1 1 -46.0178 -57.2376 -276.712 0 0 0 
704 2 1 -49.4073 -57.2961 -274.84 0 0 0 
706 1 1 -45.4322 -56.5024 -273.193 0 0 0 
707 2 1 -41.9048 -57.4416 -274.091 0 0 0 
708 3 1 -38.3176 -58.4125 -273.266 0 0 0 
711 3 1 -51.6823 -56.5317 -266.561 0 0 0 
709 1 1 -44.8467 -55.7673 -269.675 0 0 0 
710 2 1 -48.2362 -55.8257 -267.803 0 0 0 
712 1 1 -44.2612 -55.0321 -266.156 0 0 0 
713 2 1 -40.7337 -55.9713 -267.054 0 0 0 
715 1 1 -43.6756 -54.2969 -262.638 0 0 0 
716 2 1 -47.0652 -54.3554 -260.767 0 0 0 
714 3 1 -37.1465 -56.9421 -266.229 0 0 0 
719 2 1 -39.5626 -54.501 -260.017 0 0 0 
717 3 1 -50.5112 -55.0613 -259.524 0 0 0 
718 1 1 -43.0901 -53.5618 -259.12 0 0 0 