ITEM: TIMESTEP
0
ITEM: NUMBER OF ATOMS
1896
ITEM: BOX BOUNDS pp pp pp
-900 900
-900 900
-900 900
ITEM: ATOMS id type mol x y z ix iy iz 
182 2 1 -153.046 -187.42 -897.597 0 0 0 
183 3 1 -156.492 -188.126 -896.355 0 0 0 
188 2 1 -151.875 -185.95 -890.56 0 0 0 
181 1 1 -149.657 -187.362 -899.468 0 0 0 
184 1 1 -149.071 -186.626 -895.95 0 0 0 
185 2 1 -145.544 -187.565 -896.848 0 0 0 
186 3 1 -141.957 -188.536 -896.023 0 0 0 
187 1 1 -148.486 -185.891 -892.432 0 0 0 
1718 2 1 146.745 188.984 -896.176 0 0 1 
1719 3 1 143.299 188.278 -894.934 0 0 1 
1717 1 1 150.135 189.042 -898.048 0 0 1 
1720 1 1 150.72 189.777 -894.529 0 0 1 
1721 2 1 154.248 188.838 -895.427 0 0 1 
1722 3 1 157.835 187.867 -894.602 0 0 1 
1723 1 1 151.306 190.512 -891.011 0 0 1 
189 3 1 -155.321 -186.656 -889.318 0 0 0 
194 2 1 -150.704 -184.479 -883.524 0 0 0 
195 3 1 -154.15 -185.185 -882.281 0 0 0 
190 1 1 -147.9 -185.156 -888.913 0 0 0 
191 2 1 -144.373 -186.095 -889.811 0 0 0 
192 3 1 -140.785 -187.066 -888.986 0 0 0 
193 1 1 -147.315 -184.421 -885.395 0 0 0 
196 1 1 -146.729 -183.686 -881.876 0 0 0 
197 2 1 -143.202 -184.625 -882.774 0 0 0 
198 3 1 -139.614 -185.596 -881.949 0 0 0 
1725 3 1 144.47 189.748 -887.897 0 0 1 
1728 3 1 159.006 189.338 -887.565 0 0 1 
1724 2 1 147.917 190.454 -889.139 0 0 1 
1730 2 1 149.088 191.924 -882.103 0 0 1 
1731 3 1 145.642 191.218 -880.86 0 0 1 
1726 1 1 151.892 191.248 -887.492 0 0 1 
1727 2 1 155.419 190.308 -888.39 0 0 1 
1729 1 1 152.477 191.983 -883.974 0 0 1 
1732 1 1 153.063 192.718 -880.456 0 0 1 
1733 2 1 156.59 191.779 -881.353 0 0 1 
1734 3 1 160.177 190.808 -880.528 0 0 1 
201 3 1 -152.979 -183.715 -875.245 0 0 0 
199 1 1 -146.143 -182.951 -878.358 0 0 0 
200 2 1 -149.533 -183.009 -876.487 0 0 0 
202 1 1 -145.558 -182.215 -874.84 0 0 0 
203 2 1 -142.03 -183.155 -875.737 0 0 0 
205 1 1 -144.972 -181.48 -871.321 0 0 0 
204 3 1 -138.443 -184.125 -874.912 0 0 0 
1737 3 1 146.813 192.689 -873.823 0 0 1 
1735 1 1 153.648 193.453 -876.937 0 0 1 
1736 2 1 150.259 193.395 -875.066 0 0 1 
1738 1 1 154.234 194.188 -873.419 0 0 1 
1739 2 1 157.761 193.249 -874.316 0 0 1 
1740 3 1 161.348 192.278 -873.491 0 0 1 
207 3 1 -151.808 -182.245 -868.208 0 0 0 
213 3 1 -150.637 -180.774 -861.171 0 0 0 
206 2 1 -148.362 -181.539 -869.45 0 0 0 
208 1 1 -144.387 -180.745 -867.803 0 0 0 
209 2 1 -140.859 -181.684 -868.701 0 0 0 
211 1 1 -143.801 -180.01 -864.284 0 0 0 
212 2 1 -147.191 -180.068 -862.413 0 0 0 
210 3 1 -137.272 -182.655 -867.875 0 0 0 
215 2 1 -139.688 -180.214 -861.664 0 0 0 
216 3 1 -136.101 -181.185 -860.839 0 0 0 
214 1 1 -143.216 -179.275 -860.766 0 0 0 
1743 3 1 147.984 194.159 -866.787 0 0 1 
1741 1 1 154.819 194.923 -869.9 0 0 1 
1742 2 1 151.43 194.865 -868.029 0 0 1 
1744 1 1 155.405 195.659 -866.382 0 0 1 
1745 2 1 158.932 194.719 -867.28 0 0 1 
1747 1 1 155.99 196.394 -862.864 0 0 1 
1748 2 1 152.601 196.335 -860.992 0 0 1 
1746 3 1 162.519 193.749 -866.454 0 0 1 
1751 2 1 160.103 196.19 -860.243 0 0 1 
217 1 1 -142.63 -178.54 -857.248 0 0 0 
218 2 1 -146.02 -178.598 -855.376 0 0 0 
219 3 1 -149.466 -179.304 -854.134 0 0 0 
220 1 1 -142.045 -177.804 -853.729 0 0 0 
223 1 1 -141.459 -177.069 -850.211 0 0 0 
221 2 1 -138.517 -178.744 -854.627 0 0 0 
222 3 1 -134.93 -179.714 -853.802 0 0 0 
1749 3 1 149.155 195.629 -859.75 0 0 1 
1750 1 1 156.576 197.129 -859.345 0 0 1 
1753 1 1 157.161 197.864 -855.827 0 0 1 
1754 2 1 153.772 197.806 -853.955 0 0 1 
1755 3 1 150.326 197.1 -852.713 0 0 1 
1756 1 1 157.747 198.599 -852.308 0 0 1 
1752 3 1 163.69 195.219 -859.418 0 0 1 
1757 2 1 161.274 197.66 -853.206 0 0 1 
1758 3 1 164.862 196.689 -852.381 0 0 1 
224 2 1 -144.849 -177.128 -848.34 0 0 0 
225 3 1 -148.295 -177.834 -847.097 0 0 0 
226 1 1 -140.874 -176.334 -846.692 0 0 0 
229 1 1 -140.288 -175.599 -843.174 0 0 0 
230 2 1 -143.678 -175.657 -841.303 0 0 0 
231 3 1 -147.124 -176.363 -840.061 0 0 0 
227 2 1 -137.346 -177.273 -847.59 0 0 0 
228 3 1 -133.759 -178.244 -846.765 0 0 0 
233 2 1 -136.175 -175.803 -840.553 0 0 0 
1759 1 1 158.332 199.334 -848.79 0 0 1 
1760 2 1 154.943 199.276 -846.919 0 0 1 
1761 3 1 151.497 198.57 -845.676 0 0 1 
1763 2 1 162.445 199.13 -846.169 0 0 1 
1764 3 1 166.033 198.16 -845.344 0 0 1 
1762 1 1 158.918 200.07 -845.271 0 0 1 
1765 1 1 159.504 200.805 -841.753 0 0 1 
236 2 1 -142.507 -174.187 -834.266 0 0 0 
237 3 1 -145.953 -174.893 -833.024 0 0 0 
232 1 1 -139.703 -174.864 -839.656 0 0 0 
234 3 1 -132.588 -176.774 -839.728 0 0 0 
235 1 1 -139.117 -174.129 -836.137 0 0 0 
238 1 1 -138.532 -173.393 -832.619 0 0 0 
239 2 1 -135.004 -174.333 -833.517 0 0 0 
240 3 1 -131.417 -175.303 -832.692 0 0 0 
1770 3 1 167.204 199.63 -838.307 0 0 1 
1766 2 1 156.114 200.746 -839.882 0 0 1 
1767 3 1 152.668 200.04 -838.639 0 0 1 
1772 2 1 157.285 202.217 -832.845 0 0 1 
1773 3 1 153.839 201.511 -831.603 0 0 1 
1768 1 1 160.089 201.54 -838.235 0 0 1 
1769 2 1 163.617 200.601 -839.132 0 0 1 
1771 1 1 160.674 202.275 -834.716 0 0 1 
1774 1 1 161.26 203.01 -831.198 0 0 1 
1775 2 1 164.787 202.071 -832.096 0 0 1 
1776 3 1 168.375 201.1 -831.27 0 0 1 
242 2 1 -141.336 -172.717 -827.229 0 0 0 
243 3 1 -144.782 -173.423 -825.987 0 0 0 
248 2 1 -140.165 -171.246 -820.192 0 0 0 
241 1 1 -137.946 -172.658 -829.101 0 0 0 
244 1 1 -137.361 -171.923 -825.582 0 0 0 
245 2 1 -133.833 -172.862 -826.48 0 0 0 
246 3 1 -130.246 -173.833 -825.655 0 0 0 
247 1 1 -136.775 -171.188 -822.064 0 0 0 
1778 2 1 158.456 203.687 -825.808 0 0 1 
1779 3 1 155.01 202.981 -824.566 0 0 1 
1777 1 1 161.846 203.745 -827.679 0 0 1 
1780 1 1 162.431 204.481 -824.161 0 0 1 
1781 2 1 165.959 203.541 -825.059 0 0 1 
1782 3 1 169.546 202.571 -824.234 0 0 1 
1783 1 1 163.017 205.216 -820.643 0 0 1 
249 3 1 -143.611 -171.952 -818.95 0 0 0 
255 3 1 -142.44 -170.482 -811.913 0 0 0 
250 1 1 -136.19 -170.453 -818.545 0 0 0 
251 2 1 -132.662 -171.392 -819.443 0 0 0 
252 3 1 -129.075 -172.363 -818.618 0 0 0 
258 3 1 -127.904 -170.892 -811.581 0 0 0 
253 1 1 -135.604 -169.718 -815.027 0 0 0 
254 2 1 -138.993 -169.776 -813.156 0 0 0 
256 1 1 -135.018 -168.982 -811.509 0 0 0 
257 2 1 -131.491 -169.922 -812.406 0 0 0 
1784 2 1 159.627 205.157 -818.771 0 0 1 
1785 3 1 156.181 204.451 -817.529 0 0 1 
1791 3 1 157.352 205.922 -810.492 0 0 1 
1786 1 1 163.602 205.951 -817.124 0 0 1 
1787 2 1 167.13 205.012 -818.022 0 0 1 
1789 1 1 164.188 206.686 -813.606 0 0 1 
1790 2 1 160.798 206.628 -811.735 0 0 1 
1792 1 1 164.773 207.421 -810.087 0 0 1 
1793 2 1 168.301 206.482 -810.985 0 0 1 
1788 3 1 170.717 204.041 -817.197 0 0 1 
1794 3 1 171.888 205.511 -810.16 0 0 1 
261 3 1 -141.268 -169.012 -804.876 0 0 0 
259 1 1 -134.433 -168.247 -807.99 0 0 0 
260 2 1 -137.822 -168.306 -806.119 0 0 0 
262 1 1 -133.847 -167.512 -804.472 0 0 0 
263 2 1 -130.32 -168.451 -805.369 0 0 0 
265 1 1 -133.262 -166.777 -800.953 0 0 0 
264 3 1 -126.733 -169.422 -804.544 0 0 0 
1797 3 1 158.523 207.392 -803.456 0 0 1 
1795 1 1 165.359 208.156 -806.569 0 0 1 
1796 2 1 161.969 208.098 -804.698 0 0 1 
1798 1 1 165.944 208.892 -803.051 0 0 1 
1799 2 1 169.472 207.952 -803.948 0 0 1 
1800 3 1 173.059 206.982 -803.123 0 0 1 
267 3 1 -140.097 -167.541 -797.84 0 0 0 
266 2 1 -136.651 -166.835 -799.082 0 0 0 
268 1 1 -132.676 -166.042 -797.435 0 0 0 
271 1 1 -132.091 -165.307 -793.917 0 0 0 
272 2 1 -135.48 -165.365 -792.045 0 0 0 
273 3 1 -138.926 -166.071 -790.803 0 0 0 
274 1 1 -131.505 -164.571 -790.398 0 0 0 
269 2 1 -129.149 -166.981 -798.333 0 0 0 
270 3 1 -125.562 -167.952 -797.508 0 0 0 
275 2 1 -127.978 -165.511 -791.296 0 0 0 
276 3 1 -124.391 -166.482 -790.471 0 0 0 
1803 3 1 159.694 208.862 -796.419 0 0 1 
1801 1 1 166.53 209.627 -799.533 0 0 1 
1802 2 1 163.14 209.568 -797.661 0 0 1 
1805 2 1 170.643 209.423 -796.912 0 0 1 
1806 3 1 174.23 208.452 -796.087 0 0 1 
1804 1 1 167.115 210.362 -796.014 0 0 1 
1807 1 1 167.701 211.097 -792.496 0 0 1 
1808 2 1 164.311 211.039 -790.625 0 0 1 
277 1 1 -130.92 -163.836 -786.88 0 0 0 
278 2 1 -134.309 -163.895 -785.008 0 0 0 
279 3 1 -137.755 -164.601 -783.766 0 0 0 
280 1 1 -130.334 -163.101 -783.361 0 0 0 
281 2 1 -126.807 -164.04 -784.259 0 0 0 
282 3 1 -123.219 -165.011 -783.434 0 0 0 
1812 3 1 175.401 209.922 -789.05 0 0 1 
1809 3 1 160.865 210.333 -789.382 0 0 1 
1810 1 1 168.286 211.832 -788.977 0 0 1 
1813 1 1 168.872 212.567 -785.459 0 0 1 
1814 2 1 165.482 212.509 -783.588 0 0 1 
1815 3 1 162.036 211.803 -782.346 0 0 1 
1816 1 1 169.458 213.303 -781.941 0 0 1 
1811 2 1 171.814 210.893 -789.875 0 0 1 
1817 2 1 172.985 212.363 -782.838 0 0 1 
1818 3 1 176.572 211.393 -782.013 0 0 1 
284 2 1 -133.138 -162.424 -777.972 0 0 0 
285 3 1 -136.584 -163.13 -776.729 0 0 0 
290 2 1 -131.967 -160.954 -770.935 0 0 0 
283 1 1 -129.749 -162.366 -779.843 0 0 0 
286 1 1 -129.163 -161.631 -776.324 0 0 0 
287 2 1 -125.636 -162.57 -777.222 0 0 0 
288 3 1 -122.048 -163.541 -776.397 0 0 0 
289 1 1 -128.578 -160.896 -772.806 0 0 0 
293 2 1 -124.465 -161.1 -770.185 0 0 0 
1820 2 1 166.654 213.979 -776.551 0 0 1 
1821 3 1 163.207 213.273 -775.309 0 0 1 
1819 1 1 170.043 214.038 -778.422 0 0 1 
1822 1 1 170.629 214.773 -774.904 0 0 1 
1823 2 1 174.156 213.834 -775.802 0 0 1 
1824 3 1 177.743 212.863 -774.976 0 0 1 
1825 1 1 171.214 215.508 -771.385 0 0 1 
291 3 1 -135.413 -161.66 -769.692 0 0 0 
297 3 1 -134.242 -160.19 -762.656 0 0 0 
292 1 1 -127.992 -160.16 -769.288 0 0 0 
294 3 1 -120.877 -162.071 -769.36 0 0 0 
300 3 1 -119.706 -160.6 -762.323 0 0 0 
296 2 1 -130.796 -159.484 -763.898 0 0 0 
295 1 1 -127.406 -159.425 -765.769 0 0 0 
298 1 1 -126.821 -158.69 -762.251 0 0 0 
299 2 1 -123.293 -159.629 -763.149 0 0 0 
1826 2 1 167.825 215.45 -769.514 0 0 1 
1827 3 1 164.379 214.744 -768.272 0 0 1 
1832 2 1 168.996 216.92 -762.477 0 0 1 
1833 3 1 165.549 216.214 -761.235 0 0 1 
1828 1 1 171.8 216.243 -767.867 0 0 1 
1829 2 1 175.327 215.304 -768.765 0 0 1 
1830 3 1 178.914 214.333 -767.94 0 0 1 
1831 1 1 172.385 216.978 -764.349 0 0 1 
1834 1 1 172.971 217.714 -760.83 0 0 1 
1835 2 1 176.498 216.774 -761.728 0 0 1 
1836 3 1 180.085 215.804 -760.903 0 0 1 
303 3 1 -133.071 -158.719 -755.619 0 0 0 
301 1 1 -126.235 -157.955 -758.732 0 0 0 
302 2 1 -129.625 -158.013 -756.861 0 0 0 
304 1 1 -125.65 -157.22 -755.214 0 0 0 
305 2 1 -122.122 -158.159 -756.112 0 0 0 
307 1 1 -125.064 -156.485 -751.696 0 0 0 
306 3 1 -118.535 -159.13 -755.287 0 0 0 
1839 3 1 166.721 217.684 -754.198 0 0 1 
1837 1 1 173.556 218.449 -757.312 0 0 1 
1838 2 1 170.167 218.39 -755.441 0 0 1 
1840 1 1 174.142 219.184 -753.793 0 0 1 
1841 2 1 177.669 218.245 -754.691 0 0 1 
1843 1 1 174.727 219.919 -750.275 0 0 1 
1842 3 1 181.256 217.274 -753.866 0 0 1 
309 3 1 -131.9 -157.249 -748.582 0 0 0 
315 3 1 -130.729 -155.779 -741.545 0 0 0 
308 2 1 -128.454 -156.543 -749.824 0 0 0 
310 1 1 -124.479 -155.75 -748.177 0 0 0 
311 2 1 -120.951 -156.689 -749.075 0 0 0 
313 1 1 -123.893 -155.014 -744.659 0 0 0 
314 2 1 -127.283 -155.073 -742.788 0 0 0 
316 1 1 -123.308 -154.279 -741.14 0 0 0 
312 3 1 -117.364 -157.66 -748.25 0 0 0 
317 2 1 -119.78 -155.218 -742.038 0 0 0 
318 3 1 -116.193 -156.189 -741.213 0 0 0 
1845 3 1 167.892 219.155 -747.162 0 0 1 
1844 2 1 171.338 219.861 -748.404 0 0 1 
1847 2 1 178.84 219.715 -747.654 0 0 1 
1848 3 1 182.428 218.744 -746.829 0 0 1 
1851 3 1 169.063 220.625 -740.125 0 0 1 
1846 1 1 175.313 220.654 -746.757 0 0 1 
1849 1 1 175.898 221.389 -743.238 0 0 1 
1850 2 1 172.509 221.331 -741.367 0 0 1 
1853 2 1 180.011 221.185 -740.618 0 0 1 
319 1 1 -122.722 -153.544 -737.622 0 0 0 
320 2 1 -126.112 -153.602 -735.751 0 0 0 
321 3 1 -129.558 -154.308 -734.509 0 0 0 
322 1 1 -122.137 -152.809 -734.104 0 0 0 
325 1 1 -121.551 -152.074 -730.585 0 0 0 
323 2 1 -118.609 -153.748 -735.001 0 0 0 
324 3 1 -115.022 -154.719 -734.176 0 0 0 
1852 1 1 176.484 222.125 -739.72 0 0 1 
1855 1 1 177.069 222.86 -736.201 0 0 1 
1856 2 1 173.68 222.801 -734.33 0 0 1 
1857 3 1 170.234 222.095 -733.088 0 0 1 
1858 1 1 177.655 223.595 -732.683 0 0 1 
1854 3 1 183.599 220.214 -739.792 0 0 1 
1859 2 1 181.182 222.656 -733.581 0 0 1 
1860 3 1 184.77 221.685 -732.756 0 0 1 
326 2 1 -124.941 -152.132 -728.714 0 0 0 
327 3 1 -128.387 -152.838 -727.472 0 0 0 
328 1 1 -120.966 -151.339 -727.067 0 0 0 
331 1 1 -120.38 -150.603 -723.548 0 0 0 
332 2 1 -123.77 -150.662 -721.677 0 0 0 
333 3 1 -127.216 -151.368 -720.435 0 0 0 
329 2 1 -117.438 -152.278 -727.965 0 0 0 
330 3 1 -113.851 -153.249 -727.139 0 0 0 
335 2 1 -116.267 -150.807 -720.928 0 0 0 
336 3 1 -112.68 -151.778 -720.103 0 0 0 
334 1 1 -119.795 -149.868 -720.03 0 0 0 
1861 1 1 178.24 224.33 -729.165 0 0 1 
1862 2 1 174.851 224.272 -727.293 0 0 1 
1863 3 1 171.405 223.566 -726.051 0 0 1 
1864 1 1 178.826 225.065 -725.646 0 0 1 
1867 1 1 179.411 225.8 -722.128 0 0 1 
1868 2 1 176.022 225.742 -720.257 0 0 1 
1865 2 1 182.353 224.126 -726.544 0 0 1 
1866 3 1 185.941 223.155 -725.719 0 0 1 
342 3 1 -111.509 -150.308 -713.066 0 0 0 
338 2 1 -122.599 -149.191 -714.64 0 0 0 
339 3 1 -126.045 -149.897 -713.398 0 0 0 
337 1 1 -119.209 -149.133 -716.512 0 0 0 
340 1 1 -118.624 -148.398 -712.993 0 0 0 
341 2 1 -115.096 -149.337 -713.891 0 0 0 
1869 3 1 172.576 225.036 -719.014 0 0 1 
1870 1 1 179.997 226.536 -718.609 0 0 1 
1874 2 1 177.193 227.212 -713.22 0 0 1 
1875 3 1 173.747 226.506 -711.978 0 0 1 
1871 2 1 183.524 225.596 -719.507 0 0 1 
1872 3 1 187.112 224.625 -718.682 0 0 1 
1873 1 1 180.583 227.271 -715.091 0 0 1 
1876 1 1 181.168 228.006 -711.573 0 0 1 
1877 2 1 184.696 227.067 -712.47 0 0 1 
1878 3 1 188.283 226.096 -711.645 0 0 1 
344 2 1 -121.427 -147.721 -707.604 0 0 0 
345 3 1 -124.874 -148.427 -706.361 0 0 0 
350 2 1 -120.257 -146.251 -700.567 0 0 0 
343 1 1 -118.038 -147.663 -709.475 0 0 0 
346 1 1 -117.453 -146.928 -705.957 0 0 0 
347 2 1 -113.925 -147.867 -706.854 0 0 0 
348 3 1 -110.338 -148.838 -706.029 0 0 0 
349 1 1 -116.867 -146.192 -702.438 0 0 0 
1880 2 1 178.364 228.683 -706.183 0 0 1 
1881 3 1 174.918 227.977 -704.941 0 0 1 
1879 1 1 181.754 228.741 -708.054 0 0 1 
1882 1 1 182.339 229.476 -704.536 0 0 1 
1883 2 1 185.867 228.537 -705.434 0 0 1 
1884 3 1 189.454 227.566 -704.608 0 0 1 
1885 1 1 182.925 230.211 -701.017 0 0 1 
351 3 1 -123.703 -146.957 -699.324 0 0 0 
357 3 1 -122.531 -145.486 -692.288 0 0 0 
352 1 1 -116.281 -145.457 -698.92 0 0 0 
353 2 1 -112.754 -146.396 -699.817 0 0 0 
355 1 1 -115.696 -144.722 -695.401 0 0 0 
356 2 1 -119.085 -144.78 -693.53 0 0 0 
358 1 1 -115.11 -143.987 -691.883 0 0 0 
359 2 1 -111.583 -144.926 -692.781 0 0 0 
354 3 1 -109.167 -147.367 -698.992 0 0 0 
360 3 1 -107.996 -145.897 -691.955 0 0 0 
1887 3 1 176.089 229.447 -697.904 0 0 1 
1890 3 1 190.625 229.036 -697.572 0 0 1 
1886 2 1 179.535 230.153 -699.146 0 0 1 
1893 3 1 177.26 230.917 -690.867 0 0 1 
1888 1 1 183.51 230.946 -697.499 0 0 1 
1889 2 1 187.038 230.007 -698.397 0 0 1 
1891 1 1 184.096 231.682 -693.981 0 0 1 
1892 2 1 180.706 231.623 -692.109 0 0 1 
1894 1 1 184.681 232.417 -690.462 0 0 1 
1895 2 1 188.209 231.478 -691.36 0 0 1 
1896 3 1 191.796 230.507 -690.535 0 0 1 
363 3 1 -121.36 -144.016 -685.251 0 0 0 
361 1 1 -114.525 -143.252 -688.365 0 0 0 
362 2 1 -117.914 -143.31 -686.493 0 0 0 
364 1 1 -113.939 -142.517 -684.846 0 0 0 
365 2 1 -110.412 -143.456 -685.744 0 0 0 
367 1 1 -113.354 -141.781 -681.328 0 0 0 
366 3 1 -106.825 -144.427 -684.919 0 0 0 
369 3 1 -120.189 -142.546 -678.214 0 0 0 
368 2 1 -116.743 -141.84 -679.456 0 0 0 
370 1 1 -112.768 -141.046 -677.809 0 0 0 
373 1 1 -112.183 -140.311 -674.291 0 0 0 
374 2 1 -115.572 -140.369 -672.42 0 0 0 
375 3 1 -119.018 -141.075 -671.177 0 0 0 
371 2 1 -109.241 -141.985 -678.707 0 0 0 
372 3 1 -105.653 -142.956 -677.882 0 0 0 
377 2 1 -108.07 -140.515 -671.67 0 0 0 
378 3 1 -104.483 -141.486 -670.845 0 0 0 
376 1 1 -111.597 -139.576 -670.773 0 0 0 
384 3 1 -103.311 -140.016 -663.808 0 0 0 
379 1 1 -111.012 -138.841 -667.254 0 0 0 
380 2 1 -114.401 -138.899 -665.383 0 0 0 
381 3 1 -117.847 -139.605 -664.14 0 0 0 
382 1 1 -110.426 -138.106 -663.736 0 0 0 
383 2 1 -106.899 -139.045 -664.633 0 0 0 
385 1 1 -109.841 -137.37 -660.217 0 0 0 
386 2 1 -113.23 -137.429 -658.346 0 0 0 
387 3 1 -116.676 -138.135 -657.104 0 0 0 
392 2 1 -112.059 -135.958 -651.309 0 0 0 
393 3 1 -115.505 -136.664 -650.067 0 0 0 
388 1 1 -109.255 -136.635 -656.699 0 0 0 
389 2 1 -105.728 -137.574 -657.597 0 0 0 
390 3 1 -102.14 -138.545 -656.771 0 0 0 
391 1 1 -108.669 -135.9 -653.181 0 0 0 
395 2 1 -104.556 -136.104 -650.56 0 0 0 
398 2 1 -110.888 -134.488 -644.272 0 0 0 
399 3 1 -114.334 -135.194 -643.03 0 0 0 
394 1 1 -108.084 -135.165 -649.662 0 0 0 
396 3 1 -100.969 -137.075 -649.735 0 0 0 
397 1 1 -107.499 -134.43 -646.144 0 0 0 
400 1 1 -106.913 -133.695 -642.625 0 0 0 
401 2 1 -103.385 -134.634 -643.523 0 0 0 
402 3 1 -99.7983 -135.605 -642.698 0 0 0 
405 3 1 -113.163 -133.724 -635.993 0 0 0 
403 1 1 -106.327 -132.959 -639.107 0 0 0 
404 2 1 -109.717 -133.018 -637.236 0 0 0 
406 1 1 -105.742 -132.224 -635.588 0 0 0 
407 2 1 -102.214 -133.163 -636.486 0 0 0 
409 1 1 -105.156 -131.489 -632.07 0 0 0 
410 2 1 -108.546 -131.548 -630.199 0 0 0 
408 3 1 -98.6272 -134.134 -635.661 0 0 0 
411 3 1 -111.992 -132.254 -628.957 0 0 0 
417 3 1 -110.821 -130.783 -621.92 0 0 0 
412 1 1 -104.571 -130.754 -628.552 0 0 0 
413 2 1 -101.043 -131.693 -629.449 0 0 0 
415 1 1 -103.985 -130.019 -625.033 0 0 0 
416 2 1 -107.375 -130.077 -623.162 0 0 0 
414 3 1 -97.4562 -132.664 -628.624 0 0 0 
419 2 1 -99.8723 -130.223 -622.413 0 0 0 
420 3 1 -96.2851 -131.194 -621.587 0 0 0 
418 1 1 -103.4 -129.284 -621.515 0 0 0 
421 1 1 -102.814 -128.548 -617.996 0 0 0 
422 2 1 -106.204 -128.607 -616.125 0 0 0 
423 3 1 -109.65 -129.313 -614.883 0 0 0 
424 1 1 -102.229 -127.813 -614.478 0 0 0 
427 1 1 -101.643 -127.078 -610.96 0 0 0 
425 2 1 -98.7013 -128.752 -615.376 0 0 0 
426 3 1 -95.114 -129.723 -614.551 0 0 0 
428 2 1 -105.033 -127.137 -609.088 0 0 0 
429 3 1 -108.479 -127.843 -607.846 0 0 0 
430 1 1 -101.058 -126.343 -607.441 0 0 0 
433 1 1 -100.472 -125.608 -603.923 0 0 0 
434 2 1 -103.862 -125.666 -602.052 0 0 0 
435 3 1 -107.308 -126.372 -600.809 0 0 0 
431 2 1 -97.5302 -127.282 -608.339 0 0 0 
432 3 1 -93.943 -128.253 -607.514 0 0 0 
436 1 1 -99.8866 -124.873 -600.404 0 0 0 
437 2 1 -96.3591 -125.812 -601.302 0 0 0 
438 3 1 -92.7719 -126.783 -600.477 0 0 0 
440 2 1 -102.691 -124.196 -595.015 0 0 0 
441 3 1 -106.137 -124.902 -593.773 0 0 0 
439 1 1 -99.3011 -124.137 -596.886 0 0 0 
442 1 1 -98.7155 -123.402 -593.368 0 0 0 
443 2 1 -95.1881 -124.341 -594.265 0 0 0 
444 3 1 -91.6008 -125.312 -593.44 0 0 0 
446 2 1 -101.519 -122.726 -587.978 0 0 0 
447 3 1 -104.966 -123.431 -586.736 0 0 0 
452 2 1 -100.348 -121.255 -580.941 0 0 0 
445 1 1 -98.13 -122.667 -589.849 0 0 0 
448 1 1 -97.5445 -121.932 -586.331 0 0 0 
449 2 1 -94.017 -122.871 -587.229 0 0 0 
450 3 1 -90.4298 -123.842 -586.403 0 0 0 
451 1 1 -96.9589 -121.197 -582.812 0 0 0 
455 2 1 -92.846 -121.401 -580.192 0 0 0 
453 3 1 -103.794 -121.961 -579.699 0 0 0 
459 3 1 -102.623 -120.491 -572.662 0 0 0 
454 1 1 -96.3734 -120.462 -579.294 0 0 0 
456 3 1 -89.2587 -122.372 -579.367 0 0 0 
462 3 1 -88.0877 -120.901 -572.33 0 0 0 
457 1 1 -95.7879 -119.726 -575.776 0 0 0 
458 2 1 -99.1774 -119.785 -573.904 0 0 0 
460 1 1 -95.2023 -118.991 -572.257 0 0 0 
461 2 1 -91.6749 -119.93 -573.155 0 0 0 
465 3 1 -101.452 -119.02 -565.625 0 0 0 
463 1 1 -94.6168 -118.256 -568.739 0 0 0 
464 2 1 -98.0063 -118.315 -566.868 0 0 0 
466 1 1 -94.0313 -117.521 -565.22 0 0 0 
467 2 1 -90.5038 -118.46 -566.118 0 0 0 
469 1 1 -93.4458 -116.786 -561.702 0 0 0 
468 3 1 -86.9166 -119.431 -565.293 0 0 0 
471 3 1 -100.281 -117.55 -558.588 0 0 0 
470 2 1 -96.8353 -116.844 -559.831 0 0 0 
472 1 1 -92.8602 -116.051 -558.184 0 0 0 
475 1 1 -92.2747 -115.316 -554.665 0 0 0 
476 2 1 -95.6642 -115.374 -552.794 0 0 0 
477 3 1 -99.1103 -116.08 -551.552 0 0 0 
478 1 1 -91.6892 -114.58 -551.147 0 0 0 
473 2 1 -89.3328 -116.99 -559.081 0 0 0 
474 3 1 -85.7455 -117.961 -558.256 0 0 0 
479 2 1 -88.1617 -115.519 -552.044 0 0 0 
480 3 1 -84.5745 -116.49 -551.219 0 0 0 
481 1 1 -91.1036 -113.845 -547.628 0 0 0 
482 2 1 -94.4931 -113.904 -545.757 0 0 0 
483 3 1 -97.9392 -114.609 -544.515 0 0 0 
484 1 1 -90.5181 -113.11 -544.11 0 0 0 
485 2 1 -86.9906 -114.049 -545.008 0 0 0 
486 3 1 -83.4034 -115.02 -544.183 0 0 0 
487 1 1 -89.9326 -112.375 -540.592 0 0 0 
488 2 1 -93.3221 -112.433 -538.72 0 0 0 
489 3 1 -96.7682 -113.139 -537.478 0 0 0 
494 2 1 -92.151 -110.963 -531.684 0 0 0 
495 3 1 -95.5971 -111.669 -530.441 0 0 0 
490 1 1 -89.347 -111.64 -537.073 0 0 0 
491 2 1 -85.8196 -112.579 -537.971 0 0 0 
492 3 1 -82.2324 -113.55 -537.146 0 0 0 
493 1 1 -88.7615 -110.904 -533.555 0 0 0 
496 1 1 -88.176 -110.169 -530.036 0 0 0 
497 2 1 -84.6485 -111.109 -530.934 0 0 0 
498 3 1 -81.0613 -112.079 -530.109 0 0 0 
501 3 1 -94.426 -110.199 -523.404 0 0 0 
504 3 1 -79.8902 -110.609 -523.072 0 0 0 
500 2 1 -90.98 -109.493 -524.647 0 0 0 
499 1 1 -87.5905 -109.434 -526.518 0 0 0 
502 1 1 -87.0049 -108.699 -523 0 0 0 
503 2 1 -83.4775 -109.638 -523.897 0 0 0 
507 3 1 -93.255 -108.728 -516.368 0 0 0 
505 1 1 -86.4194 -107.964 -519.481 0 0 0 
506 2 1 -89.8089 -108.022 -517.61 0 0 0 
508 1 1 -85.8339 -107.229 -515.963 0 0 0 
509 2 1 -82.3064 -108.168 -516.861 0 0 0 
511 1 1 -85.2483 -106.493 -512.444 0 0 0 
512 2 1 -88.6379 -106.552 -510.573 0 0 0 
510 3 1 -78.7192 -109.139 -516.035 0 0 0 
513 3 1 -92.0839 -107.258 -509.331 0 0 0 
519 3 1 -90.9129 -105.788 -502.294 0 0 0 
514 1 1 -84.6628 -105.758 -508.926 0 0 0 
515 2 1 -81.1353 -106.698 -509.824 0 0 0 
517 1 1 -84.0773 -105.023 -505.408 0 0 0 
518 2 1 -87.4668 -105.082 -503.536 0 0 0 
520 1 1 -83.4917 -104.288 -501.889 0 0 0 
516 3 1 -77.5481 -107.668 -508.999 0 0 0 
521 2 1 -79.9643 -105.227 -502.787 0 0 0 
522 3 1 -76.377 -106.198 -501.962 0 0 0 
523 1 1 -82.9062 -103.553 -498.371 0 0 0 
524 2 1 -86.2957 -103.611 -496.5 0 0 0 
525 3 1 -89.7418 -104.317 -495.257 0 0 0 
526 1 1 -82.3207 -102.818 -494.852 0 0 0 
529 1 1 -81.7352 -102.082 -491.334 0 0 0 
527 2 1 -78.7932 -103.757 -495.75 0 0 0 
528 3 1 -75.206 -104.728 -494.925 0 0 0 
530 2 1 -85.1247 -102.141 -489.463 0 0 0 
531 3 1 -88.5707 -102.847 -488.221 0 0 0 
532 1 1 -81.1496 -101.347 -487.816 0 0 0 
535 1 1 -80.5641 -100.612 -484.297 0 0 0 
536 2 1 -83.9536 -100.671 -482.426 0 0 0 
537 3 1 -87.3997 -101.377 -481.184 0 0 0 
533 2 1 -77.6222 -102.287 -488.713 0 0 0 
534 3 1 -74.0349 -103.257 -487.888 0 0 0 
539 2 1 -76.4511 -100.816 -481.676 0 0 0 
540 3 1 -72.8639 -101.787 -480.851 0 0 0 
538 1 1 -79.9785 -99.8771 -480.779 0 0 0 
546 3 1 -71.6928 -100.317 -473.815 0 0 0 
542 2 1 -82.7825 -99.2004 -475.389 0 0 0 
543 3 1 -86.2286 -99.9063 -474.147 0 0 0 
541 1 1 -79.393 -99.1419 -477.26 0 0 0 
544 1 1 -78.8075 -98.4067 -473.742 0 0 0 
545 2 1 -75.28 -99.3459 -474.64 0 0 0 
547 1 1 -78.222 -97.6716 -470.224 0 0 0 
548 2 1 -81.6115 -97.7301 -468.352 0 0 0 
549 3 1 -85.0576 -98.436 -467.11 0 0 0 
554 2 1 -80.4404 -96.2597 -461.316 0 0 0 
555 3 1 -83.8865 -96.9657 -460.073 0 0 0 
550 1 1 -77.6364 -96.9364 -466.705 0 0 0 
551 2 1 -74.109 -97.8756 -467.603 0 0 0 
552 3 1 -70.5217 -98.8465 -466.778 0 0 0 
553 1 1 -77.0509 -96.2013 -463.187 0 0 0 
557 2 1 -72.9379 -96.4053 -460.566 0 0 0 
561 3 1 -82.7154 -95.4953 -453.036 0 0 0 
556 1 1 -76.4654 -95.4661 -459.668 0 0 0 
559 1 1 -75.8798 -94.7309 -456.15 0 0 0 
560 2 1 -79.2694 -94.7894 -454.279 0 0 0 
562 1 1 -75.2943 -93.9958 -452.632 0 0 0 
563 2 1 -71.7668 -94.935 -453.529 0 0 0 
558 3 1 -69.3507 -97.3761 -459.741 0 0 0 
564 3 1 -68.1796 -95.9058 -452.704 0 0 0 
567 3 1 -81.5444 -94.025 -446 0 0 0 
565 1 1 -74.7088 -93.2606 -449.113 0 0 0 
566 2 1 -78.0983 -93.3191 -447.242 0 0 0 
568 1 1 -74.1232 -92.5254 -445.595 0 0 0 
569 2 1 -70.5958 -93.4646 -446.493 0 0 0 
571 1 1 -73.5377 -91.7903 -442.076 0 0 0 
572 2 1 -76.9272 -91.8488 -440.205 0 0 0 
570 3 1 -67.0086 -94.4355 -445.667 0 0 0 
573 3 1 -80.3733 -92.5547 -438.963 0 0 0 
574 1 1 -72.9522 -91.0551 -438.558 0 0 0 
577 1 1 -72.3667 -90.3199 -435.04 0 0 0 
578 2 1 -75.7562 -90.3784 -433.168 0 0 0 
579 3 1 -79.2022 -91.0844 -431.926 0 0 0 
575 2 1 -69.4247 -91.9943 -439.456 0 0 0 
576 3 1 -65.8375 -92.9651 -438.631 0 0 0 
581 2 1 -68.2537 -90.524 -432.419 0 0 0 
582 3 1 -64.6664 -91.4948 -431.594 0 0 0 
580 1 1 -71.7811 -89.5848 -431.521 0 0 0 
588 3 1 -63.4954 -90.0245 -424.557 0 0 0 
583 1 1 -71.1956 -88.8496 -428.003 0 0 0 
584 2 1 -74.5851 -88.9081 -426.132 0 0 0 
585 3 1 -78.0312 -89.614 -424.889 0 0 0 
586 1 1 -70.6101 -88.1145 -424.484 0 0 0 
589 1 1 -70.0245 -87.3793 -420.966 0 0 0 
587 2 1 -67.0826 -89.0536 -425.382 0 0 0 
590 2 1 -73.4141 -87.4378 -419.095 0 0 0 
591 3 1 -76.8601 -88.1437 -417.853 0 0 0 
596 2 1 -72.243 -85.9674 -412.058 0 0 0 
597 3 1 -75.6891 -86.6734 -410.816 0 0 0 
592 1 1 -69.439 -86.6441 -417.448 0 0 0 
593 2 1 -65.9115 -87.5833 -418.345 0 0 0 
594 3 1 -62.3243 -88.5542 -417.52 0 0 0 
595 1 1 -68.8535 -85.909 -413.929 0 0 0 
598 1 1 -68.2679 -85.1738 -410.411 0 0 0 
599 2 1 -64.7405 -86.113 -411.308 0 0 0 
600 3 1 -61.1533 -87.0838 -410.483 0 0 0 
602 2 1 -71.0719 -84.4971 -405.021 0 0 0 
603 3 1 -74.518 -85.203 -403.779 0 0 0 
601 1 1 -67.6824 -84.4386 -406.892 0 0 0 
604 1 1 -67.0969 -83.7035 -403.374 0 0 0 
605 2 1 -63.5694 -84.6427 -404.272 0 0 0 
606 3 1 -59.9822 -85.6135 -403.447 0 0 0 
609 3 1 -73.3469 -83.7327 -396.742 0 0 0 
607 1 1 -66.5113 -82.9683 -399.856 0 0 0 
608 2 1 -69.9009 -83.0268 -397.984 0 0 0 
610 1 1 -65.9258 -82.2331 -396.337 0 0 0 
611 2 1 -62.3984 -83.1723 -397.235 0 0 0 
613 1 1 -65.3403 -81.498 -392.819 0 0 0 
614 2 1 -68.7298 -81.5565 -390.948 0 0 0 
617 2 1 -61.2273 -81.702 -390.198 0 0 0 
612 3 1 -58.8111 -84.1432 -396.41 0 0 0 
615 3 1 -72.1759 -82.2624 -389.705 0 0 0 
621 3 1 -71.0048 -80.7921 -382.668 0 0 0 
616 1 1 -64.7548 -80.7628 -389.3 0 0 0 
619 1 1 -64.1692 -80.0277 -385.782 0 0 0 
620 2 1 -67.5587 -80.0861 -383.911 0 0 0 
623 2 1 -60.0562 -80.2317 -383.161 0 0 0 
618 3 1 -57.6401 -82.6729 -389.373 0 0 0 
624 3 1 -56.469 -81.2025 -382.336 0 0 0 
622 1 1 -63.5837 -79.2925 -382.264 0 0 0 
625 1 1 -62.9982 -78.5573 -378.745 0 0 0 
626 2 1 -66.3877 -78.6158 -376.874 0 0 0 
627 3 1 -69.8337 -79.3217 -375.632 0 0 0 
628 1 1 -62.4126 -77.8222 -375.227 0 0 0 
631 1 1 -61.8271 -77.087 -371.708 0 0 0 
629 2 1 -58.8852 -78.7613 -376.125 0 0 0 
630 3 1 -55.298 -79.7322 -375.299 0 0 0 
632 2 1 -65.2166 -77.1455 -369.837 0 0 0 
633 3 1 -68.6627 -77.8514 -368.595 0 0 0 
634 1 1 -61.2416 -76.3518 -368.19 0 0 0 
637 1 1 -60.656 -75.6167 -364.672 0 0 0 
638 2 1 -64.0456 -75.6752 -362.8 0 0 0 
639 3 1 -67.4916 -76.3811 -361.558 0 0 0 
640 1 1 -60.0705 -74.8815 -361.153 0 0 0 
635 2 1 -57.7141 -77.291 -369.088 0 0 0 
636 3 1 -54.1269 -78.2619 -368.263 0 0 0 
641 2 1 -56.543 -75.8207 -362.051 0 0 0 
642 3 1 -52.9558 -76.7916 -361.226 0 0 0 
644 2 1 -62.8745 -74.2048 -355.764 0 0 0 
645 3 1 -66.3206 -74.9107 -354.521 0 0 0 
643 1 1 -59.485 -74.1463 -357.635 0 0 0 
646 1 1 -58.8995 -73.4112 -354.116 0 0 0 
647 2 1 -55.372 -74.3504 -355.014 0 0 0 
648 3 1 -51.7848 -75.3212 -354.189 0 0 0 
649 1 1 -58.3139 -72.676 -350.598 0 0 0 
650 2 1 -61.7034 -72.7345 -348.727 0 0 0 
651 3 1 -65.1495 -73.4404 -347.485 0 0 0 
656 2 1 -60.5324 -71.2642 -341.69 0 0 0 
657 3 1 -63.9784 -71.9701 -340.448 0 0 0 
652 1 1 -57.7284 -71.9409 -347.08 0 0 0 
653 2 1 -54.2009 -72.88 -347.977 0 0 0 
654 3 1 -50.6137 -73.8509 -347.152 0 0 0 
655 1 1 -57.1429 -71.2057 -343.561 0 0 0 
658 1 1 -56.5573 -70.4705 -340.043 0 0 0 
659 2 1 -53.0299 -71.4097 -340.94 0 0 0 
660 3 1 -49.4426 -72.3806 -340.115 0 0 0 
663 3 1 -62.8074 -70.4998 -333.411 0 0 0 
666 3 1 -48.2716 -70.9103 -333.079 0 0 0 
661 1 1 -55.9718 -69.7354 -336.524 0 0 0 
662 2 1 -59.3613 -69.7939 -334.653 0 0 0 
664 1 1 -55.3863 -69.0002 -333.006 0 0 0 
665 2 1 -51.8588 -69.9394 -333.904 0 0 0 
669 3 1 -61.6363 -69.0294 -326.374 0 0 0 
667 1 1 -54.8007 -68.265 -329.488 0 0 0 
668 2 1 -58.1902 -68.3235 -327.616 0 0 0 
670 1 1 -54.2152 -67.5299 -325.969 0 0 0 
671 2 1 -50.6877 -68.4691 -326.867 0 0 0 
673 1 1 -53.6297 -66.7947 -322.451 0 0 0 
674 2 1 -57.0192 -66.8532 -320.579 0 0 0 
672 3 1 -47.1005 -69.4399 -326.042 0 0 0 
675 3 1 -60.4653 -67.5591 -319.337 0 0 0 
676 1 1 -53.0441 -66.0596 -318.932 0 0 0 
679 1 1 -52.4586 -65.3244 -315.414 0 0 0 
680 2 1 -55.8481 -65.3829 -313.543 0 0 0 
681 3 1 -59.2942 -66.0888 -312.3 0 0 0 
682 1 1 -51.8731 -64.5892 -311.896 0 0 0 
677 2 1 -49.5167 -66.9987 -319.83 0 0 0 
678 3 1 -45.9295 -67.9696 -319.005 0 0 0 
683 2 1 -48.3456 -65.5284 -312.793 0 0 0 
684 3 1 -44.7584 -66.4993 -311.968 0 0 0 
685 1 1 -51.2876 -63.8541 -308.377 0 0 0 
686 2 1 -54.6771 -63.9125 -306.506 0 0 0 
687 3 1 -58.1231 -64.6185 -305.264 0 0 0 
688 1 1 -50.702 -63.1189 -304.859 0 0 0 
691 1 1 -50.1165 -62.3837 -301.34 0 0 0 
689 2 1 -47.1746 -64.0581 -305.757 0 0 0 
690 3 1 -43.5873 -65.0289 -304.931 0 0 0 
692 2 1 -53.506 -62.4422 -299.469 0 0 0 
693 3 1 -56.9521 -63.1481 -298.227 0 0 0 
698 2 1 -52.3349 -60.9719 -292.432 0 0 0 
699 3 1 -55.781 -61.6778 -291.19 0 0 0 
694 1 1 -49.531 -61.6486 -297.822 0 0 0 
695 2 1 -46.0035 -62.5877 -298.72 0 0 0 
696 3 1 -42.4163 -63.5586 -297.895 0 0 0 
697 1 1 -48.9454 -60.9134 -294.304 0 0 0 
700 1 1 -48.3599 -60.1782 -290.785 0 0 0 
701 2 1 -44.8324 -61.1174 -291.683 0 0 0 
702 3 1 -41.2452 -62.0883 -290.858 0 0 0 
705 3 1 -54.6099 -60.2075 -284.153 0 0 0 
708 3 1 -40.0742 -60.618 -283.821 0 0 0 
704 2 1 -51.1639 -59.5016 -285.396 0 0 0 
703 1 1 -47.7744 -59.4431 -287.267 0 0 0 
706 1 1 -47.1888 -58.7079 -283.748 0 0 0 
707 2 1 -43.6614 -59.6471 -284.646 0 0 0 
709 1 1 -46.6033 -57.9727 -280.23 0 0 0 
711 3 1 -53.4389 -58.7372 -277.116 0 0 0 
717 3 1 -52.2678 -57.2668 -270.08 0 0 0 
710 2 1 -49.9928 -58.0312 -278.359 0 0 0 
712 1 1 -46.0178 -57.2376 -276.712 0 0 0 
713 2 1 -42.4903 -58.1768 -277.609 0 0 0 
715 1 1 -45.4322 -56.5024 -273.193 0 0 0 
716 2 1 -48.8218 -56.5609 -271.322 0 0 0 
719 2 1 -41.3192 -56.7064 -270.572 0 0 0 
714 3 1 -38.9031 -59.1476 -276.784 0 0 0 
723 3 1 -51.0968 -55.7965 -263.043 0 0 0 
718 1 1 -44.8467 -55.7673 -269.675 0 0 0 
721 1 1 -44.2612 -55.0321 -266.156 0 0 0 