LAMMPS Datafile for P3HT with Mn = 15897 Da, Mw = 37280 Da, polydispersity = 2.34510950439 and density = 1.06508230183 g/cm^3

       11472  atoms
       11432  bonds
       15136  angles
       15058  dihedrals
        3744  impropers

           3  atom types
           3  bond types
           4  angle types
           4  dihedral types
           1  improper types

-49.85600 49.85600 xlo xhi
-49.85600 49.85600 ylo yhi
-49.85600 49.85600 zlo zhi

Masses

  1 81.11657
  2 42.08127
  3 43.08924

Atoms

       1       1       1     11.1572     39.1942    -47.7822           0           0           1
       2       1       2     12.4911     36.8954     -45.893           0           0           1
       3       1       3     11.3997     36.2212    -42.8651           0           0           1
       4       1       1     11.9253     36.9117    -45.4541           0           0           1
       5       1       2     13.8808     36.2761    -47.9391           0           0           1
       6       1       3     15.8801     38.6485    -46.9374           0           0           1
       7       1       1     13.4581     34.3436    -45.4451           0           0           1
       8       1       2     13.8135     35.0166    -48.5857           0           0           1
       9       1       3     14.3792     33.6286    -45.6042           0           0           1
      10       1       1     13.2994       32.64    -47.0469           0           0           1
      11       1       2     12.2772     30.2283    -44.5965           0           0           1
      12       1       3       10.39     27.3115    -42.7836           0           0           1
      13       1       1     13.1464     33.4736     -49.385           0           0           1
      14       1       2     13.5008      30.858     49.0547           0           0           0
      15       1       3     12.6176     31.9182    -47.9346           0           0           1
      16       1       1     12.7054     35.6126     47.8483           0           0           0
      17       1       2     14.9319     38.2522     46.2012           0           0           0
      18       1       3     16.1345      37.719     49.2207           0           0           0
      19       1       1     13.1492      37.386     46.4953           0           0           0
      20       1       2     15.7731     36.5428     45.8988           0           0           0
      21       1       3     13.1001     35.7681     47.6686           0           0           0
      22       1       1     15.9012     37.6221     44.8658           0           0           0
      23       1       2     17.2383     40.3384     42.9157           0           0           0
      24       1       3     18.1869     36.8056     43.8963           0           0           0
      25       1       1     17.4821     35.9131     44.3607           0           0           0
      26       1       2     16.8427     32.4825     46.3498           0           0           0
      27       1       3     15.8849     34.1971     48.6927           0           0           0
      28       1       1     16.8232     33.3023     46.1292           0           0           0
      29       1       2     17.1895     30.9349     44.8676           0           0           0
      30       1       3     16.3645     29.7267     48.6517           0           0           0
      31       1       1     16.2553     29.5243     48.6979           0           0           0
      32       1       2     13.8104     28.8105    -47.6184           0           0           1
      33       1       3     13.9187     27.5652     48.9862           0           0           0
      34       1       1     13.8497     27.3223      49.028           0           0           0
      35       1       2     13.6394      28.714    -47.3675           0           0           1
      36       1       3     12.3067     26.7275     -45.158           0           0           1
      37       1       1     13.4641     22.7911     -47.383           0           0           1
      38       1       2     12.7583     19.0406    -46.7341           0           0           1
      39       1       3     13.9214     16.1134    -46.5921           0           0           1
      40       1       1     13.4034     20.9707    -47.4453           0           0           1
      41       1       2     11.0769      20.153    -45.5983           0           0           1
      42       1       3     13.5102     22.3303    -47.1124           0           0           1
      43       1       1     11.9398     19.6118    -46.5892           0           0           1
      44       1       2     11.7466       18.02    -42.8165           0           0           1
      45       1       3     12.4947     16.5541    -39.8853           0           0           1
      46       1       1     10.1231     20.4534    -45.4665           0           0           1
      47       1       2     10.1327     23.6234    -46.2343           0           0           1
      48       1       3      10.998     26.3382    -47.9443           0           0           1
      49       1       1     7.89826     22.6987    -45.1948           0           0           1
      50       1       2     10.3076      23.765    -46.3519           0           0           1
      51       1       3      8.0439     25.7062    -47.4836           0           0           1
      52       1       1     7.88776     25.6136    -47.0574           0           0           1
      53       1       2     5.50593     27.8347    -46.4538           0           0           1
      54       1       3     8.16677     25.7637    -44.4413           0           0           1
      55       1       1     5.73751     27.5707    -47.2369           0           0           1
      56       1       2     5.13337     29.8966    -45.1768           0           0           1
      57       1       3     1.88423       29.59    -45.5995           0           0           1
      58       1       1     4.41227     28.7269    -46.0588           0           0           1
      59       1       2     5.47762     30.7462    -43.8634           0           0           1
      60       1       3     6.23617     27.6798    -42.9357           0           0           1
      61       1       1     4.66922     30.8727     -44.278           0           0           1
      62       1       2     3.88072     28.7308    -40.5428           0           0           1
      63       1       3    0.333445     27.0462     -41.774           0           0           1
      64       1       1     6.26263     31.3379    -42.2415           0           0           1
      65       1       2     8.22506     32.9675    -40.1025           0           0           1
      66       1       3     7.37434     29.7066    -40.0564           0           0           1
      67       1       1     7.83236      28.543    -40.4956           0           0           1
      68       1       2     10.1787     26.5484    -39.6352           0           0           1
      69       1       3     12.5703      28.078    -38.1618           0           0           1
      70       1       1     6.98489      25.522    -40.2269           0           0           1
      71       1       2     3.03465     24.4319    -40.6281           0           0           1
      72       1       3     2.74594     21.3513    -39.9223           0           0           1
      73       1       1     3.91641     23.9573    -40.7517           0           0           1
      74       1       2     2.18737      25.793     -38.852           0           0           1
      75       1       3    -0.58839     28.3149    -38.7889           0           0           1
      76       1       1     1.00139     23.8111    -41.9924           0           0           1
      77       1       2    -1.91864     24.0986    -40.6289           0           0           1
      78       1       3     -4.1043     25.2112    -42.8538           0           0           1
      79       1       1    -1.07773     23.2943    -43.5716           0           0           1
      80       1       2    -2.34878      19.491    -42.3782           0           0           1
      81       1       3    -4.59638     19.2119    -45.5351           0           0           1
      82       1       1   -0.330561     22.2763    -45.4843           0           0           1
      83       1       2     1.13347     19.2965    -42.7425           0           0           1
      84       1       3   -0.619012     16.4772    -44.9545           0           0           1
      85       1       1     2.19092     22.6484    -45.7995           0           0           1
      86       1       2     1.64409     20.5561    -43.2735           0           0           1
      87       1       3     2.86352     21.9567    -46.0333           0           0           1
      88       1       1     3.01351     21.4652     -45.974           0           0           1
      89       1       2   -0.738171     20.5666    -45.2714           0           0           1
      90       1       3     2.10638     18.5584    -46.1142           0           0           1
      91       1       1     2.57897     18.4156    -46.5158           0           0           1
      92       1       2     2.99165     15.1652    -46.2328           0           0           1
      93       1       3     2.27723     15.4831    -42.9649           0           0           1
      94       1       1     2.88682     15.3854    -47.2973           0           0           1
      95       1       2     4.88826     13.2676    -48.4965           0           0           1
      96       1       3     2.17956     11.9295    -46.9448           0           0           1
      97       1       1     4.11209     13.6617      -48.77           0           0           1
      98       1       2      6.1377     11.9218    -47.0534           0           0           1
      99       1       3     3.75522      11.847    -43.8694           0           0           1
     100       1       1     5.53991     12.6343    -48.1363           0           0           1
     101       1       2     7.69171     10.3894    -47.6576           0           0           1
     102       1       3     9.10524     7.39951    -48.1639           0           0           1
     103       1       1     6.32629     13.0095      -45.71           0           0           1
     104       1       2     8.93808     13.1665     -43.383           0           0           1
     105       1       3     6.14454     14.7053    -44.3465           0           0           1
     106       1       1     6.76077     15.0303    -44.2771           0           0           1
     107       1       2     9.37779     13.1528    -43.1271           0           0           1
     108       1       3     8.12755     9.61047    -44.1342           0           0           1
     109       1       1     9.32428     15.4457    -42.5748           0           0           1
     110       1       2     9.01484     17.5156    -40.4445           0           0           1
     111       1       3      6.5567     15.1957    -40.9019           0           0           1
     112       1       1     12.6415     14.7048    -42.7025           0           0           1
     113       1       2     13.5157     11.0829    -43.8466           0           0           1
     114       1       3     13.9412     14.2333    -42.8106           0           0           1
     115       1       1     15.2142     13.9089    -44.6955           0           0           1
     116       1       2     14.6271     10.8047    -47.3585           0           0           1
     117       1       3     12.8889     7.54148    -48.3592           0           0           1
     118       1       1      16.391     13.4823    -46.8116           0           0           1
     119       1       2     14.6649     11.0603    -47.6422           0           0           1
     120       1       3     16.0472     13.5362    -45.8119           0           0           1
     121       1       1     15.4642     11.6063    -49.5548           0           0           1
     122       1       2     16.4006     7.48659     49.8161           0           0           0
     123       1       3     14.2537     9.78283     48.9769           0           0           0
     124       1       1     13.5519      10.696     48.9108           0           0           0
     125       1       2     10.2894     10.2008     49.3865           0           0           0
     126       1       3     10.9875     10.0846    -46.4455           0           0           1
     127       1       1     10.8118     10.3257     49.0737           0           0           0
     128       1       2     8.80208     13.2446     49.5863           0           0           0
     129       1       3     11.6098     12.5941     -48.609           0           0           1
     130       1       1     9.05196     12.1542      49.416           0           0           0
     131       1       2     8.55475     15.2866    -49.7067           0           0           1
     132       1       3     9.03902     13.7562    -46.9172           0           0           1
     133       1       1     8.48289     14.4368     49.6793           0           0           0
     134       1       2     8.58742     17.4479     -49.218           0           0           1
     135       1       3     11.3136     16.7796     48.8867           0           0           0
     136       1       1     8.27252     17.0234    -49.6448           0           0           1
     137       1       2     6.16818     16.5226    -47.2687           0           0           1
     138       1       3     4.55605     17.7659    -44.2046           0           0           1
     139       1       1     9.83402     18.8303    -48.9764           0           0           1
     140       1       2     10.8179     22.1552    -49.2891           0           0           1
     141       1       3     12.1198     19.4315    -49.8446           0           0           1
     142       1       1     10.7894     21.6993    -49.2081           0           0           1
     143       1       2     11.7703     24.4966      49.191           0           0           0
     144       1       3     11.3629     28.5837    -49.7105           0           0           1
     145       1       1     11.7102      24.288     49.4164           0           0           0
     146       1       2      10.934      23.907     46.4935           0           0           0
     147       1       3     12.2548     21.4614     47.5962           0           0           0
     148       1       1     12.4404     26.5529     46.2398           0           0           0
     149       1       2     15.1391     28.5222      45.947           0           0           0
     150       1       3     13.8092      31.908     45.9966           0           0           0
     151       1       1     14.3528      30.357     46.0744           0           0           0
     152       1       2     15.5576     27.6739     45.9838           0           0           0
     153       1       3     12.5543     26.5746     46.1653           0           0           0
     154       1       1     15.3103     34.0826     43.7561           0           0           0
     155       1       2     17.0024     36.9184     40.9288           0           0           0
     156       1       3     17.3113     37.4408     37.4929           0           0           0
     157       1       1     14.3206     35.0559     43.1455           0           0           0
     158       1       2     17.1927     37.2228     40.7945           0           0           0
     159       1       3     17.6754     40.6466     38.6926           0           0           0
     160       1       1     12.3776      34.794     43.7291           0           0           0
     161       1       2     9.15492     34.6818     44.0665           0           0           0
     162       1       3     12.3877     34.5556     44.4072           0           0           0
     163       1       1     11.5856     34.2421     45.2804           0           0           0
     164       1       2     8.91694     34.7352     44.0086           0           0           0
     165       1       3      7.7059      37.436     44.8953           0           0           0
     166       1       1     9.69762     30.9316     49.6501           0           0           0
     167       1       2     5.80125     29.6227     49.6246           0           0           0
     168       1       3     8.49589     28.2996    -49.6355           0           0           1
     169       1       1     8.19877     28.8995      49.738           0           0           0
     170       1       2     5.19945     29.7125    -49.7479           0           0           1
     171       1       3     5.57129     32.8024     49.0739           0           0           0
     172       1       1     5.70685     29.4019     49.4817           0           0           0
     173       1       2     2.84718     29.1688    -48.5956           0           0           1
     174       1       3     1.51502     28.4134      48.598           0           0           0
     175       1       1     2.31553     28.9654    -49.3557           0           0           1
     176       1       2    0.694894     26.6244    -45.9396           0           0           1
     177       1       3    -3.06156      26.663     -46.282           0           0           1
     178       1       1     1.88745     27.0613    -47.4506           0           0           1
     179       1       2   -0.095567     25.9585    -45.1654           0           0           1
     180       1       3    -3.40055     23.5493    -45.6277           0           0           1
     181       1       1     3.54968      25.241    -46.7515           0           0           1
     182       1       2     4.83728     24.4986    -43.9938           0           0           1
     183       1       3     5.23748     21.2089    -43.7672           0           0           1
     184       1       1     5.03192     24.2711    -45.1164           0           0           1
     185       1       2     3.29141     26.3292    -43.6017           0           0           1
     186       1       3     1.72852     29.7741    -42.6103           0           0           1
     187       1       1     6.28752     24.0254    -42.7818           0           0           1
     188       1       2     6.73518     21.7045    -39.9484           0           0           1
     189       1       3     5.30985     18.6613    -41.3486           0           0           1
     190       1       1     9.20079     23.1887    -42.3743           0           0           1
     191       1       2     10.1199     21.4324    -39.7024           0           0           1
     192       1       3     9.16814     20.6857    -42.5852           0           0           1
     193       1       1     9.64981     20.6765    -42.2934           0           0           1
     194       1       2     10.9854     21.2007    -39.5147           0           0           1
     195       1       3     9.60507     23.9381     -41.995           0           0           1
     196       1       1     7.40973      18.705    -43.9148           0           0           1
     197       1       2     9.41617     16.9351    -45.4846           0           0           1
     198       1       3     11.9032     13.7863    -45.6046           0           0           1
     199       1       1     7.03092     19.3657    -46.3572           0           0           1
     200       1       2     9.31414     17.0684    -45.6692           0           0           1
     201       1       3     11.3074     15.9846    -47.9403           0           0           1
     202       1       1     8.10414      20.713    -47.5941           0           0           1
     203       1       2     6.13856     22.9395    -47.8891           0           0           1
     204       1       3     6.95072     20.0487    -46.7915           0           0           1
     205       1       1     7.44077     22.8081    -48.6265           0           0           1
     206       1       2      8.6235     22.8519     48.3544           0           0           0
     207       1       3     9.69122     19.7764     47.8529           0           0           0
     208       1       1     9.21685     25.8223     48.0987           0           0           0
     209       1       2     11.0876      29.387     46.9041           0           0           0
     210       1       3     9.52111     26.4726     47.6039           0           0           0
     211       1       1     9.62501     26.6639     47.0654           0           0           0
     212       1       2     11.2494     29.5541     46.8156           0           0           0
     213       1       3     11.4195     32.6614     47.8518           0           0           0
     214       1       1     11.2354     29.5132     46.4902           0           0           0
     215       1       2     13.4874     30.7876     42.9175           0           0           0
     216       1       3     13.5203     27.6415     43.4133           0           0           0
     217       1       1     12.6043     29.8663     43.9866           0           0           0
     218       1       2     13.8695     31.7801     42.3601           0           0           0
     219       1       3     14.3844     34.3005     40.2194           0           0           0
     220       1       1     14.2689     30.4385     42.5248           0           0           0
     221       1       2     16.8097       32.39     41.6293           0           0           0
     222       1       3     17.3451      34.382     39.0851           0           0           0
     223       1       1     16.0953     29.3189     42.1643           0           0           0
     224       1       2      17.031     32.3653     41.6197           0           0           0
     225       1       3     16.3288     28.7104     42.5742           0           0           0
     226       1       1     16.6199     27.9445     43.1069           0           0           0
     227       1       2     14.7482      24.289     45.0399           0           0           0
     228       1       3     15.2335     21.1036     45.2567           0           0           0
     229       1       1     15.2011       24.86     44.6016           0           0           0
     230       1       2     14.3449     24.1599     47.0222           0           0           0
     231       1       3     16.2464     25.7951     49.0546           0           0           0
     232       1       1     14.3328     23.5827     46.5926           0           0           0
     233       1       2      15.197     19.3195      47.955           0           0           0
     234       1       3     17.0286     16.3173     47.5585           0           0           0
     235       1       1     15.0787     19.7232     47.8536           0           0           0
     236       1       2     14.9785     17.7224    -49.5644           0           0           1
     237       1       3     16.9624     15.0771    -49.2663           0           0           1
     238       1       1     15.0407     17.8556      49.765           0           0           0
     239       1       2     13.9159     16.0548     47.2031           0           0           0
     240       1       3     13.9652     14.5312    -49.5373           0           0           1
     241       1       1     13.9001     15.2424     49.7998           0           0           0
     242       1       2     13.7881      16.049     46.9017           0           0           0
     243       1       3     11.8381     13.6721     47.9729           0           0           0
     244       1       1     12.0882      13.443     47.6594           0           0           0
     245       1       2     13.4758     9.46595     45.9103           0           0           0
     246       1       3     14.7572     6.12613     46.9834           0           0           0
     247       1       1      11.316     11.3734     46.1207           0           0           0
     248       1       2     8.95453     13.6318     46.2953           0           0           0
     249       1       3     9.36232     16.6139     46.8158           0           0           0
     250       1       1      12.849     10.1082     45.4386           0           0           0
     251       1       2     12.5322     10.7533     42.6302           0           0           0
     252       1       3      11.083      11.376     45.4018           0           0           0
     253       1       1      12.751     10.6068     42.8211           0           0           0
     254       1       2      16.287     8.09115     42.0515           0           0           0
     255       1       3     17.6977     5.30221     43.0448           0           0           0
     256       1       1     10.7454     13.4193      42.618           0           0           0
     257       1       2     9.15261     10.8653     42.5755           0           0           0
     258       1       3     10.0784     13.6771     43.2247           0           0           0
     259       1       1     8.36024      15.187     43.5231           0           0           0
     260       1       2     6.23626     18.5054     44.2682           0           0           0
     261       1       3     7.65266     15.7357     44.1424           0           0           0
     262       1       1     6.85673     17.1882     44.6966           0           0           0
     263       1       2     5.61112     15.2742     48.3917           0           0           0
     264       1       3     5.85494     12.0348     48.2782           0           0           0
     265       1       1     6.37632     16.5965     47.1747           0           0           0
     266       1       2     4.61108     17.2034     49.5914           0           0           0
     267       1       3     6.75288     17.8471     47.2314           0           0           0
     268       1       1     4.93998     17.1343     49.2085           0           0           0
     269       1       2     1.05471     17.0376    -48.9444           0           0           1
     270       1       3     4.06717     19.9529    -48.6478           0           0           1
     271       1       1     4.66813     19.9582    -49.1982           0           0           1
     272       1       2     5.21291     22.3348     48.5754           0           0           0
     273       1       3     6.85664     19.9724     49.5073           0           0           0
     274       1       1     3.19947     23.2621    -49.4803           0           0           1
     275       1       2    0.355364     24.0529    -47.9523           0           0           1
     276       1       3   -0.310185     26.7424    -49.2941           0           0           1
     277       1       1     3.83206       25.74    -49.6015           0           0           1
     278       1       2     6.72573     25.4404      49.491           0           0           0
     279       1       3     3.18179     23.5757     -49.307           0           0           1
     280       1       1     6.13286     26.0571     49.4564           0           0           0
     281       1       2     6.62484     27.6449     46.6328           0           0           0
     282       1       3     4.00141     26.5701     49.6906           0           0           0
     283       1       1     6.68664     27.5581     46.7303           0           0           0
     284       1       2     8.02141     30.8998     46.8388           0           0           0
     285       1       3     10.4112     31.7219     44.5644           0           0           0
     286       1       1     8.23634       28.68     45.6099           0           0           0
     287       1       2     7.73331     31.1258     47.1608           0           0           0
     288       1       3     3.96637      28.969     46.9829           0           0           0
     289       1       1     8.34754     31.7406     46.7603           0           0           0
     290       1       2     9.34711     34.8353     47.4462           0           0           0
     291       1       3     10.7992     37.4305     44.6011           0           0           0
     292       1       1     8.53707     33.4477     48.6821           0           0           0
     293       1       2     7.03293     35.0261     -48.915           0           0           1
     294       1       3     5.87714     33.7835    -46.0214           0           0           1
     295       1       1     7.05827     32.2568    -48.1509           0           0           1
     296       1       2     9.37469     29.4003    -46.5728           0           0           1
     297       1       3     7.14785      31.545    -47.6924           0           0           1
     298       1       1     7.97968     30.8526    -47.3284           0           0           1
     299       1       2     9.23704     28.5582    -45.9756           0           0           1
     300       1       3     9.04808     30.2068    -43.2037           0           0           1
     301       1       1     9.89875     30.4655    -46.7724           0           0           1
     302       1       2     9.59864     33.1109    -44.9305           0           0           1
     303       1       3     9.96623      33.328    -48.1549           0           0           1
     304       1       1     10.4826     32.7866    -45.7022           0           0           1