LAMMPS Datafile for P3HT with Mn = 18840 Da, Mw = 45743 Da, polydispersity = 2.42794010076 and density = 1.12237138189 g/cm^3

       13596  atoms
       13556  bonds
       17968  angles
       17890  dihedrals
        4452  impropers

           3  atom types
           3  bond types
           4  angle types
           4  dihedral types
           1  improper types

-51.84700 51.84700 xlo xhi
-51.84700 51.84700 ylo yhi
-51.84700 51.84700 zlo zhi

Masses

  1 81.11657
  2 42.08127
  3 43.08924

Atoms

       1       1       1     26.1805    -37.5969    -30.4291           0           0           0
       2       1       2     25.0697    -41.3136    -30.6295           0           0           0
       3       1       3     25.6187    -37.5833    -31.1021           0           0           0
       4       1       1     24.1545    -39.5686    -30.4264           0           0           0
       5       1       2     25.7334    -42.0558    -31.1635           0           0           0
       6       1       3      23.291    -44.2434    -31.2336           0           0           0
       7       1       1     23.6325    -42.4951    -30.2787           0           0           0
       8       1       2     20.9307    -41.8646     -31.195           0           0           0
       9       1       3     22.5586     -39.332    -31.8538           0           0           0
      10       1       1     20.8406     -43.146    -29.5035           0           0           0
      11       1       2     20.0508    -44.9935    -31.6831           0           0           0
      12       1       3     18.2172    -42.9286    -30.4813           0           0           0
      13       1       1     18.5493    -42.8344    -30.5218           0           0           0
      14       1       2     19.5983    -39.1679    -29.5991           0           0           0
      15       1       3     20.5011     -36.789    -27.8799           0           0           0
      16       1       1     16.1474     -42.445    -32.8339           0           0           0
      17       1       2     16.3727    -40.3345    -35.1196           0           0           0
      18       1       3     14.8924     -42.698    -33.8244           0           0           0
      19       1       1     14.3339    -42.4789    -34.1968           0           0           0
      20       1       2     10.4725    -43.8336    -34.4801           0           0           0
      21       1       3     9.20637    -44.1825    -38.3203           0           0           0
      22       1       1     11.4281    -43.6611    -34.8844           0           0           0
      23       1       2     9.92384    -43.8512    -32.5523           0           0           0
      24       1       3     12.8803    -41.6611      -31.26           0           0           0
      25       1       1     9.49917    -44.0196     -32.545           0           0           0
      26       1       2     7.23635    -44.7721    -34.3168           0           0           0
      27       1       3     7.17193    -44.6937    -31.1799           0           0           0
      28       1       1     7.24905    -43.9012     -28.759           0           0           0
      29       1       2     8.76504    -42.2702    -26.2018           0           0           0
      30       1       3     12.6835    -42.1223    -25.3396           0           0           0
      31       1       1     8.57322    -42.3998    -26.3561           0           0           0
      32       1       2     6.82652    -43.0998    -23.8684           0           0           0
      33       1       3     7.06448    -43.8468       -28.1           0           0           0
      34       1       1     7.34933    -42.6951    -23.6534           0           0           0
      35       1       2     5.58667    -44.0391     -21.778           0           0           0
      36       1       3     3.95242    -46.6532    -22.3116           0           0           0
      37       1       1      5.7878    -43.8801    -21.8375           0           0           0
      38       1       2     5.80294    -43.6351     -18.448           0           0           0
      39       1       3     6.69796    -43.5146    -15.4222           0           0           0
      40       1       1     4.22375    -44.7032    -19.6483           0           0           0
      41       1       2    0.874896    -47.3888    -20.1312           0           0           0
      42       1       3     3.24227    -45.2611    -19.8424           0           0           0
      43       1       1     2.31677    -45.9501    -19.9229           0           0           0
      44       1       2     0.33718    -48.2787    -20.1468           0           0           0
      45       1       3    -3.38529    -49.7878    -18.8893           0           0           0
      46       1       1    0.776655    -46.9452    -21.4319           0           0           0
      47       1       2    -2.18072     -49.174    -23.3539           0           0           0
      48       1       3     1.11002    -46.7886    -23.3212           0           0           0
      49       1       1     1.41564    -46.5758    -23.6123           0           0           0
      50       1       2     1.10573    -46.8551    -27.9666           0           0           0
      51       1       3    -1.55466    -48.6688    -28.4495           0           0           0
      52       1       1     5.17731    -45.5153    -26.7084           0           0           0
      53       1       2     2.55706    -47.6339    -29.1446           0           0           0
      54       1       3   -0.779886    -47.9929    -31.4974           0           0           0
      55       1       1     3.91835    -46.8539    -28.8406           0           0           0
      56       1       2      2.4342    -47.7977    -32.7569           0           0           0
      57       1       3     2.68965    -49.7241    -35.3353           0           0           0
      58       1       1     2.48854    -48.4898     -30.401           0           0           0
      59       1       2    0.737037    -51.1468    -28.9005           0           0           0
      60       1       3    -2.09276    -51.2375    -26.0872           0           0           0
      61       1       1     1.14046    -50.5447    -29.0375           0           0           0
      62       1       2    -1.73199     51.5579    -29.6578           0          -1           0
      63       1       3    -4.59934    -50.5011    -28.7763           0           0           0
      64       1       1     0.92005     51.6154    -29.2613           0          -1           0
      65       1       2      -2.179     51.1609    -30.6812           0          -1           0
      66       1       3    0.053142    -51.1139    -32.8542           0           0           0
      67       1       1     3.16052     49.8295    -31.3808           0          -1           0
      68       1       2     3.52427     47.4139    -33.5515           0          -1           0
      69       1       3     2.78077     50.6174    -33.8821           0          -1           0
      70       1       1     5.44345      50.885    -33.9922           0          -1           0
      71       1       2     7.92353     49.7912    -36.7413           0          -1           0
      72       1       3     7.37996     46.9376    -34.9592           0          -1           0
      73       1       1      5.9811    -50.5397    -35.4248           0           0           0
      74       1       2     8.49863    -51.5759    -37.4726           0           0           0
      75       1       3     5.88961    -51.4846     -34.781           0           0           0
      76       1       1     5.83503    -47.6208    -34.0991           0           0           0
      77       1       2     5.88019    -48.1241    -30.8269           0           0           0
      78       1       3     4.48161    -50.9824    -31.3785           0           0           0
      79       1       1      5.3583    -47.1739    -31.6785           0           0           0
      80       1       2     7.87414    -48.6421    -30.8643           0           0           0
      81       1       3     5.93108    -47.6185    -34.0805           0           0           0
      82       1       1     6.15594     -48.401    -30.1909           0           0           0
      83       1       2     8.79081    -49.7984    -31.2421           0           0           0
      84       1       3     8.86233    -49.7117    -34.5566           0           0           0
      85       1       1     8.82372    -49.3632    -30.0865           0           0           0
      86       1       2     8.31663    -51.6804    -32.0572           0           0           0
      87       1       3     11.6083    -51.0505    -32.1446           0           0           0
      88       1       1     11.0264    -50.7646    -31.7014           0           0           0
      89       1       2     12.1237    -49.0749    -35.2823           0           0           0
      90       1       3     11.9588     51.1042    -36.9298           0          -1           0
      91       1       1      12.146    -49.3183    -34.7707           0           0           0
      92       1       2     15.9731    -48.2109    -35.8166           0           0           0
      93       1       3     16.6577    -45.3048    -35.2139           0           0           0
      94       1       1     11.2959    -47.9373    -36.4794           0           0           0
      95       1       2     8.26576    -47.7749    -37.4434           0           0           0
      96       1       3     11.2867    -46.4463    -37.3843           0           0           0
      97       1       1     11.8026    -45.4108    -37.2384           0           0           0
      98       1       2     14.7031    -45.9639    -38.1071           0           0           0
      99       1       3     16.9371    -48.2862    -39.3649           0           0           0
     100       1       1     14.4194    -43.9089    -36.9565           0           0           0
     101       1       2     14.8044    -41.6758    -38.8637           0           0           0
     102       1       3     17.2948    -42.7877    -37.0876           0           0           0
     103       1       1     17.8781    -42.6506    -36.3588           0           0           0
     104       1       2     19.8219    -44.8266    -34.9386           0           0           0
     105       1       3     19.3451    -41.7545    -34.7424           0           0           0
     106       1       1     19.4891    -42.5544     -34.139           0           0           0
     107       1       2     23.1632    -40.9354    -34.7288           0           0           0
     108       1       3      21.773    -42.9596    -36.7379           0           0           0
     109       1       1     22.1161    -42.6418    -33.9707           0           0           0
     110       1       2      24.856    -44.1704    -34.5994           0           0           0
     111       1       3      25.311    -47.4846    -35.5929           0           0           0
     112       1       1     23.9923      -42.08    -33.9993           0           0           0
     113       1       2     26.7815    -39.6707    -34.0735           0           0           0
     114       1       3     29.2452    -41.2554     -32.349           0           0           0
     115       1       1     25.8752     -44.089    -33.7778           0           0           0
     116       1       2     24.5252    -47.3831    -32.0281           0           0           0
     117       1       3     21.8282    -47.0559    -33.6035           0           0           0
     118       1       1     25.7762    -46.2007    -32.1827           0           0           0
     119       1       2     29.6082    -45.4586    -31.1481           0           0           0
     120       1       3     30.2886    -43.5504    -28.5702           0           0           0
     121       1       1     23.9388    -48.4265    -31.6989           0           0           0
     122       1       2     20.8105    -50.3346    -33.1991           0           0           0
     123       1       3     22.4335    -49.9558     -36.512           0           0           0
     124       1       1     21.9488    -50.1589    -32.1466           0           0           0
     125       1       2     19.0043    -50.7077    -33.3372           0           0           0
     126       1       3     19.2609    -48.6385    -36.1761           0           0           0
     127       1       1     19.4818    -50.8641    -33.0605           0           0           0
     128       1       2     18.7228     48.8717    -34.6079           0          -1           0
     129       1       3     16.5462     46.4114    -34.2367           0          -1           0
     130       1       1     17.3011    -50.3852    -33.5778           0           0           0
     131       1       2     14.9973    -48.4257    -32.4267           0           0           0
     132       1       3     14.5987    -51.1287    -34.0532           0           0           0
     133       1       1     14.8969    -49.7073     -33.216           0           0           0
     134       1       2     14.4739    -50.4986    -37.5601           0           0           0
     135       1       3      12.554    -49.0193    -39.7643           0           0           0
     136       1       1     14.0071     -47.948    -31.7703           0           0           0
     137       1       2     13.2852    -49.7614    -29.4216           0           0           0
     138       1       3     11.9488    -47.8842    -31.4946           0           0           0
     139       1       1     11.0889    -47.2556    -30.7831           0           0           0
     140       1       2     10.7091    -44.9251    -27.1756           0           0           0
     141       1       3     9.87098    -46.0072    -30.0184           0           0           0
     142       1       1     9.99969    -45.7239    -29.6446           0           0           0
     143       1       2     10.8429    -44.7685    -26.8675           0           0           0
     144       1       3     12.5845    -42.7478    -28.5199           0           0           0
     145       1       1      10.007    -45.0666    -26.6909           0           0           0
     146       1       2     10.1877    -43.4462    -23.7346           0           0           0
     147       1       3     8.28017    -45.5324    -25.1418           0           0           0
     148       1       1      7.8315    -45.7268    -24.9117           0           0           0
     149       1       2     3.97374    -47.9432    -25.5391           0           0           0
     150       1       3     4.27578    -50.2605    -27.9433           0           0           0
     151       1       1     5.74786    -46.1178    -24.2317           0           0           0
     152       1       2     3.65517    -48.0551    -25.6336           0           0           0
     153       1       3    0.466055    -49.0614    -25.9019           0           0           0
     154       1       1      3.4624    -48.0733    -25.5338           0           0           0
     155       1       2     1.82729     51.5838    -25.4886           0          -1           0
     156       1       3      1.5778     51.2698    -21.6589           0          -1           0
     157       1       1     2.02591    -51.5736    -25.5464           0           0           0
     158       1       2   -0.112863      49.725    -25.9671           0          -1           0
     159       1       3    0.046784     48.1932    -28.9057           0          -1           0
     160       1       1     2.54947     50.3619    -24.8779           0          -1           0
     161       1       2      5.3598     51.1903    -25.5256           0          -1           0
     162       1       3     2.51574     48.7966    -23.7605           0          -1           0
     163       1       1     2.08128     48.4618    -23.0561           0          -1           0
     164       1       2   -0.369054     46.3712    -23.8382           0          -1           0
     165       1       3     -0.9118     49.1762    -22.2741           0          -1           0
     166       1       1    0.045590      48.906    -20.7953           0          -1           0
     167       1       2    -3.79277     49.0197    -19.7352           0          -1           0
     168       1       3    -2.93922     51.7335    -21.4868           0          -1           0
     169       1       1   -0.221989     51.7896    -19.0667           0          -1           0
     170       1       2    -1.64625    -51.2178    -15.9007           0           0           0
     171       1       3    -4.43357     50.3494    -14.3067           0          -1           0
     172       1       1    -0.46203    -50.4844    -18.2401           0           0           0
     173       1       2    -2.16765    -51.0911    -15.7409           0           0           0
     174       1       3   -0.463614    -51.5661    -19.0189           0           0           0
     175       1       1    -0.81583    -49.2843     -15.684           0           0           0
     176       1       2     -4.3508    -49.1402     -15.122           0           0           0
     177       1       3    -4.57895    -50.6724    -12.1762           0           0           0
     178       1       1    0.677396    -49.3784    -13.3805           0           0           0
     179       1       2    -1.43265    -49.9017    -10.8927           0           0           0
     180       1       3    0.117983    -49.3186     -13.745           0           0           0
     181       1       1     2.40911    -51.0441     -13.556           0           0           0
     182       1       2     1.49511     51.3445    -10.4333           0          -1           0
     183       1       3     2.76065    -50.0823    -12.1602           0           0           0
     184       1       1     2.29497     51.0325    -16.2662           0          -1           0
     185       1       2      3.7009    -51.7593    -19.1852           0           0           0
     186       1       3     2.06546     51.5958    -16.2531           0          -1           0
     187       1       1     2.78932     51.1208    -18.6543           0          -1           0
     188       1       2     5.18486    -51.3058    -19.8805           0           0           0
     189       1       3     4.78722     50.0451    -21.8315           0          -1           0
     190       1       1     5.22065    -51.3139    -20.1344           0           0           0
     191       1       2     3.99685    -50.4147    -22.8644           0           0           0
     192       1       3     6.36493    -48.4799    -22.4423           0           0           0
     193       1       1     6.27875    -48.6225    -22.4277           0           0           0
     194       1       2     3.86058    -50.4455    -23.0628           0           0           0
     195       1       3    0.772758    -49.8803    -22.9192           0           0           0
     196       1       1     7.34582    -48.6805    -25.2706           0           0           0
     197       1       2     7.43163    -47.0963    -27.8425           0           0           0
     198       1       3     7.04164    -49.3833    -25.7585           0           0           0
     199       1       1     7.20413    -48.6282    -27.0334           0           0           0
     200       1       2      7.0031     51.3699    -28.7271           0          -1           0
     201       1       3     3.61488      50.334    -28.3569           0          -1           0
     202       1       1      7.1266    -51.3156    -28.4753           0           0           0
     203       1       2     6.53302     48.8559    -28.1781           0          -1           0
     204       1       3     2.87547     47.5934     -26.855           0          -1           0
     205       1       1     7.21948     50.5299    -29.0977           0          -1           0
     206       1       2     7.08232     48.9142    -32.0294           0          -1           0
     207       1       3     10.2103     50.2942     -34.141           0          -1           0
     208       1       1     6.30753     48.2358     -27.941           0          -1           0
     209       1       2     5.70938     45.0499    -26.9962           0          -1           0
     210       1       3     7.06918     42.7288    -28.8851           0          -1           0
     211       1       1     5.29291     45.4732     -26.794           0          -1           0
     212       1       2     2.02774     44.1608    -26.2151           0          -1           0
     213       1       3     3.99588     44.2593     -23.623           0          -1           0
     214       1       1     4.93248     44.7532    -24.3771           0          -1           0
     215       1       2      7.6756     45.4132    -23.0225           0          -1           0
     216       1       3     8.62135     47.4775    -25.3667           0          -1           0
     217       1       1     7.36651     45.0934    -22.6331           0          -1           0
     218       1       2     5.54934     44.0725    -20.0517           0          -1           0
     219       1       3     4.20643     42.1629    -17.7067           0          -1           0
     220       1       1     10.3355     46.0126    -23.2271           0          -1           0
     221       1       2     13.6306      46.783    -25.5314           0          -1           0
     222       1       3     12.1685     49.5479    -24.8768           0          -1           0
     223       1       1     12.5173      48.555    -24.6883           0          -1           0
     224       1       2      14.254     46.3079    -25.7815           0          -1           0
     225       1       3      10.911     45.9178     -23.814           0          -1           0
     226       1       1     14.5682     47.8684    -25.7958           0          -1           0
     227       1       2     16.3866     46.1303    -27.3606           0          -1           0
     228       1       3     17.2448     49.2714    -26.9948           0          -1           0
     229       1       1      17.584     49.8167     -26.623           0          -1           0
     230       1       2     21.2864     51.2547    -27.5872           0          -1           0
     231       1       3     21.6242     48.3945    -29.0093           0          -1           0
     232       1       1     20.4444     51.7954    -26.7956           0          -1           0
     233       1       2     23.2473     51.2795    -28.3946           0          -1           0
     234       1       3     24.1655     48.5799    -26.9229           0          -1           0
     235       1       1     23.1034     51.5077    -27.5394           0          -1           0
     236       1       2     24.2112     51.5342    -30.6367           0          -1           0
     237       1       3      26.483     49.2864    -29.3993           0          -1           0
     238       1       1     24.2056     50.1483    -29.8325           0          -1           0
     239       1       2       25.85      49.265    -32.7903           0          -1           0
     240       1       3     23.7608     46.8025    -31.4078           0          -1           0
     241       1       1     22.9967     46.2593    -30.7896           0          -1           0
     242       1       2     19.5495     43.6026    -30.0888           0          -1           0
     243       1       3     19.0465     46.6393    -29.5365           0          -1           0
     244       1       1     20.3229     44.4965    -30.1671           0          -1           0
     245       1       2      18.596     41.8988    -29.2226           0          -1           0
     246       1       3     15.8895     41.4007     -31.089           0          -1           0
     247       1       1     16.6219     44.2095    -29.7063           0          -1           0
     248       1       2     13.2758     43.8801    -29.4873           0          -1           0
     249       1       3     16.1914     44.9134    -30.9029           0          -1           0
     250       1       1     13.5143     44.3963    -28.2871           0          -1           0
     251       1       2     10.4973      45.362    -27.6985           0          -1           0
     252       1       3     8.70502     43.4313     -25.718           0          -1           0
     253       1       1     10.8561     45.1829     -26.942           0          -1           0
     254       1       2     9.42027     46.1386    -29.5908           0          -1           0
     255       1       3     10.0465     43.2733    -31.5455           0          -1           0
     256       1       1     9.00266     46.1354    -28.0644           0          -1           0
     257       1       2     10.2342     46.7735    -31.2175           0          -1           0
     258       1       3     13.3115     45.8185    -32.4555           0          -1           0
     259       1       1     8.83679     47.1477    -30.0256           0          -1           0
     260       1       2     6.10186     45.4739    -31.2781           0          -1           0
     261       1       3     3.26957     46.4805     -29.975           0          -1           0
     262       1       1     10.6838     47.6603    -32.4196           0          -1           0
     263       1       2     11.2113     46.7165    -35.4865           0          -1           0
     264       1       3     13.5736     48.8227    -34.3864           0          -1           0
     265       1       1     13.7998     49.0056    -34.1276           0          -1           0
     266       1       2     16.1099      49.952     -36.829           0          -1           0
     267       1       3     15.3818     50.7815    -39.9938           0          -1           0
     268       1       1     16.4696     50.5055    -33.1026           0          -1           0
     269       1       2     17.9832     51.6975    -36.7958           0          -1           0
     270       1       3      21.213     50.6044    -36.4944           0          -1           0
     271       1       1     16.2585     -51.034    -30.8129           0           0           0
     272       1       2     16.6331     -48.172    -29.4141           0           0           0
     273       1       3     18.2835    -47.4943    -33.1119           0           0           0
     274       1       1     16.4165     -49.043    -28.8233           0           0           0
     275       1       2     16.2808    -45.8937    -29.0888           0           0           0
     276       1       3     16.4609    -45.3753    -32.1374           0           0           0
     277       1       1     16.1984    -47.6867    -29.0689           0           0           0
     278       1       2      16.042    -44.5497    -28.8492           0           0           0
     279       1       3     15.0758    -42.1024    -27.0754           0           0           0
     280       1       1      16.011    -44.8378    -28.9337           0           0           0
     281       1       2     13.2592    -44.7428     -31.575           0           0           0
     282       1       3     13.5598    -46.0291     -34.608           0           0           0
     283       1       1      15.157    -43.1239    -29.9855           0           0           0
     284       1       2     13.0172    -44.8031    -31.7257           0           0           0
     285       1       3     9.91944    -46.9285    -33.6362           0           0           0
     286       1       1     15.9684    -40.7588    -29.9925           0           0           0
     287       1       2     18.1466    -40.0973    -32.3065           0           0           0
     288       1       3      16.303    -40.4464     -29.515           0           0           0
     289       1       1     16.2194    -40.0565    -29.0306           0           0           0
     290       1       2     13.1576    -39.0734    -29.3037           0           0           0
     291       1       3      14.338     -38.978    -26.5691           0           0           0
     292       1       1     14.1227    -39.1155    -26.6516           0           0           0
     293       1       2     13.9292    -39.5725    -23.4316           0           0           0
     294       1       3      11.586    -40.7503    -21.3825           0           0           0
     295       1       1     13.7897    -39.4779    -23.4048           0           0           0
     296       1       2     16.6897    -38.3138    -23.4488           0           0           0
     297       1       3     14.5132    -40.0576    -20.4539           0           0           0
     298       1       1     14.4346    -39.9683    -20.3076           0           0           0
     299       1       2     16.3421    -36.7794    -17.9781           0           0           0
     300       1       3       17.43    -34.8547    -15.7607           0           0           0
     301       1       1     12.0952    -42.1435    -19.1064           0           0           0
     302       1       2     10.1924    -41.9782    -16.7443           0           0           0
     303       1       3      8.9659    -42.2215    -20.6409           0           0           0
     304       1       1     8.84516    -42.4534    -20.7744           0           0           0