LAMMPS Datafile for P3HT with Mn = 21842 Da, Mw = 51189 Da, polydispersity = 2.34363391845 and density = 1.4633740622 g/cm^3

       15762  atoms
       15722  bonds
       20856  angles
       20778  dihedrals
        5174  impropers

           3  atom types
           3  bond types
           4  angle types
           4  dihedral types
           1  improper types

-49.85600 49.85600 xlo xhi
-49.85600 49.85600 ylo yhi
-49.85600 49.85600 zlo zhi

Masses

  1 81.11657
  2 42.08127
  3 43.08924

Atoms

       1       1       1    -17.0296       37.83    -28.9712           0           0           0
       2       1       2    -14.4974     38.4605    -27.4458           0           0           0
       3       1       3    -13.4054     41.5454    -27.9529           0           0           0
       4       1       1    -15.4266     35.4562     -30.316           0           0           0
       5       1       2    -15.1682     32.7118    -32.1756           0           0           0
       6       1       3    -15.2022     31.1217    -35.6752           0           0           0
       7       1       1     -12.941     34.2743    -31.1245           0           0           0
       8       1       2    -15.1235     32.1416    -32.2076           0           0           0
       9       1       3    -15.3145     28.5701    -32.5605           0           0           0
      10       1       1    -11.2839     34.7279    -29.8932           0           0           0
      11       1       2    -12.5664     38.1203    -30.3141           0           0           0
      12       1       3    -12.0522     34.8014     -30.566           0           0           0
      13       1       1    -11.0132     37.3666    -27.8075           0           0           0
      14       1       2    -13.3321     39.1731    -24.4195           0           0           0
      15       1       3    -11.8896     42.7618    -24.3734           0           0           0
      16       1       1     -10.582     39.9912     -28.805           0           0           0
      17       1       2    -9.25932      40.043     -31.732           0           0           0
      18       1       3    -9.36865     37.1217    -29.8779           0           0           0
      19       1       1    -8.63362     41.6107    -30.3473           0           0           0
      20       1       2    -8.91933     40.0018    -32.9228           0           0           0
      21       1       3    -7.33918     37.2884    -32.7984           0           0           0
      22       1       1     -6.3964     42.3421    -32.7674           0           0           0
      23       1       2    -6.44158     45.7779      -32.45           0           0           0
      24       1       3    -4.04672      46.908    -30.2985           0           0           0
      25       1       1    -4.08936     40.5762    -34.0775           0           0           0
      26       1       2    -1.68216     40.2851     -36.114           0           0           0
      27       1       3    -2.43377     43.4605    -36.0991           0           0           0
      28       1       1    -3.62728     38.1023    -35.1769           0           0           0
      29       1       2    -6.21074     36.1133    -35.5917           0           0           0
      30       1       3    -4.52081     38.7587    -34.6315           0           0           0
      31       1       1    -5.09754     36.5669     -36.012           0           0           0
      32       1       2    -5.24102     35.8523    -40.1053           0           0           0
      33       1       3    -3.48627     37.4182    -37.9123           0           0           0
      34       1       1    -7.65167     35.4946    -35.4314           0           0           0
      35       1       2    -11.3366     36.3159    -36.9397           0           0           0
      36       1       3    -13.5192     34.5027     -35.206           0           0           0
      37       1       1    -10.9234      34.962    -36.6365           0           0           0
      38       1       2    -11.4841     36.2838    -39.5268           0           0           0
      39       1       3    -8.45366     36.4134    -41.6743           0           0           0
      40       1       1    -11.7444     32.2009    -37.7631           0           0           0
      41       1       2    -13.8827     29.5692    -38.9234           0           0           0
      42       1       3    -14.4182     27.1612     -35.926           0           0           0
      43       1       1    -10.0312     29.6014     -39.482           0           0           0
      44       1       2    -9.96292     27.0815    -41.5623           0           0           0
      45       1       3    -12.4217     25.7192     -39.601           0           0           0
      46       1       1    -6.89263     29.0467    -40.7049           0           0           0
      47       1       2    -3.59809     29.0075    -43.0074           0           0           0
      48       1       3   -0.004027     30.0606    -44.1601           0           0           0
      49       1       1    -3.73648     28.6912    -41.6747           0           0           0
      50       1       2    -3.21718     25.5628    -41.5393           0           0           0
      51       1       3    -3.90839     22.5825    -40.3531           0           0           0
      52       1       1    -2.28093     26.2884    -41.2245           0           0           0
      53       1       2    -0.33884     26.0079    -44.0301           0           0           0
      54       1       3     0.11487      23.977    -41.5328           0           0           0
      55       1       1   -0.319518     24.2155    -40.2107           0           0           0
      56       1       2    0.002902     20.9702    -39.0846           0           0           0
      57       1       3    -2.91743     19.3514    -39.2191           0           0           0
      58       1       1     1.52477     22.8662    -38.9329           0           0           0
      59       1       2     4.10998     23.0318    -40.9499           0           0           0
      60       1       3      5.6563     20.9399    -38.8204           0           0           0
      61       1       1      1.0222     20.3382    -37.0204           0           0           0
      62       1       2     1.52226     16.7901    -35.0848           0           0           0
      63       1       3     2.23479     19.1936    -37.4227           0           0           0
      64       1       1   -0.937741      19.643    -35.5272           0           0           0
      65       1       2    0.744191     16.9437    -34.4872           0           0           0
      66       1       3     -1.8042     17.3354    -36.5463           0           0           0
      67       1       1    -1.18065     17.3162    -33.4694           0           0           0
      68       1       2    -3.58419     15.0127    -33.9165           0           0           0
      69       1       3   -0.707572     14.0474    -32.4852           0           0           0
      70       1       1    -3.67558     16.9013    -31.0676           0           0           0
      71       1       2    -6.33193     14.7766    -28.8038           0           0           0
      72       1       3    -4.70339     12.2272    -27.1606           0           0           0
      73       1       1    -6.12172     18.0827     -30.335           0           0           0
      74       1       2     -6.4202     15.1434    -29.0092           0           0           0
      75       1       3    -4.28974     16.9718    -30.8566           0           0           0
      76       1       1    -7.89198      20.361    -30.5807           0           0           0
      77       1       2    -5.61899      22.158    -31.8518           0           0           0
      78       1       3     -7.1098     19.3634    -31.0376           0           0           0
      79       1       1    -8.21098     22.2032    -32.0044           0           0           0
      80       1       2    -5.15396     22.1304    -32.0032           0           0           0
      81       1       3    -2.20817     22.5195    -33.3262           0           0           0
      82       1       1    -10.2324     25.4923    -31.6204           0           0           0
      83       1       2    -11.6192     27.1448    -33.7755           0           0           0
      84       1       3    -12.2635     26.9287     -30.639           0           0           0
      85       1       1    -12.3342      27.481    -30.3159           0           0           0
      86       1       2    -14.9316     28.7726    -28.6492           0           0           0
      87       1       3    -15.6342     25.5506    -28.6894           0           0           0
      88       1       1    -12.7476     30.1415    -30.8353           0           0           0
      89       1       2    -16.4218     30.1502    -29.0588           0           0           0
      90       1       3    -16.3886     33.7458    -27.5616           0           0           0
      91       1       1    -11.9343     30.7379    -33.0174           0           0           0
      92       1       2    -10.0203     33.0256    -34.1003           0           0           0
      93       1       3    -7.80351     34.2539    -32.0456           0           0           0
      94       1       1    -9.77086       30.58    -33.8437           0           0           0
      95       1       2    -10.3201     33.5371    -33.9404           0           0           0
      96       1       3    -10.6995     36.7241    -33.2702           0           0           0
      97       1       1    -8.58087     28.6339    -34.9806           0           0           0
      98       1       2    -8.64728     24.3972    -34.4831           0           0           0
      99       1       3    -6.45805      23.387    -37.7301           0           0           0
     100       1       1    -7.23164     29.3507    -37.3701           0           0           0
     101       1       2    -8.56183     32.9121    -38.9434           0           0           0
     102       1       3     -8.0773     30.3424    -36.8792           0           0           0
     103       1       1    -7.60696     31.8598    -39.2586           0           0           0
     104       1       2    -5.90171     32.8709    -42.2693           0           0           0
     105       1       3    -8.86158     31.4273    -42.5181           0           0           0
     106       1       1    -8.38703     34.5751    -38.5603           0           0           0
     107       1       2    -7.41671     38.6052    -38.1809           0           0           0
     108       1       3    -4.56081     39.3717    -40.6061           0           0           0
     109       1       1    -8.28046     37.6363    -37.7625           0           0           0
     110       1       2    -9.94606     40.1486    -36.4347           0           0           0
     111       1       3    -12.5223     39.7395    -33.9995           0           0           0
     112       1       1    -7.11805     39.5618    -36.3469           0           0           0
     113       1       2    -8.30063     42.5837    -35.6512           0           0           0
     114       1       3    -10.2674     43.5546     -32.931           0           0           0
     115       1       1    -4.83117     41.1402    -36.9994           0           0           0
     116       1       2    -6.18947     43.8978    -35.8433           0           0           0
     117       1       3    -4.92435     42.0435    -38.2838           0           0           0
     118       1       1    -2.02197      41.396    -39.1086           0           0           0
     119       1       2    0.022012     43.3998    -40.8407           0           0           0
     120       1       3     1.40241     40.3086    -41.5298           0           0           0
     121       1       1   -0.117601     39.5836    -41.3765           0           0           0
     122       1       2    -2.32528     38.3893    -43.6032           0           0           0
     123       1       3    -1.17377     34.9511    -44.5508           0           0           0
     124       1       1     0.55791     36.4749    -41.6646           0           0           0
     125       1       2     1.91055     33.4045    -42.4103           0           0           0
     126       1       3     5.08567     32.5025    -42.8851           0           0           0
     127       1       1     1.18505       33.35    -41.7372           0           0           0
     128       1       2    -1.91814     32.5099     -41.815           0           0           0
     129       1       3    -1.82007     35.8486    -41.1311           0           0           0
     130       1       1    -1.24629     31.1289     -41.041           0           0           0
     131       1       2    0.561885     28.3478    -40.7526           0           0           0
     132       1       3    -1.52994     28.6889    -38.3189           0           0           0
     133       1       1    -1.62059     28.8846    -38.8051           0           0           0
     134       1       2    0.816593     27.9604    -40.9002           0           0           0
     135       1       3     4.12979     27.1526    -42.4805           0           0           0
     136       1       1    -4.96911     27.5353    -38.8743           0           0           0
     137       1       2    -8.94587     26.4909    -37.7068           0           0           0
     138       1       3    -11.4763     29.2595    -36.4095           0           0           0
     139       1       1    -7.26978     25.9377    -39.4691           0           0           0
     140       1       2    -9.58513     26.3114    -37.3014           0           0           0
     141       1       3    -11.8988     24.0316    -35.9977           0           0           0
     142       1       1    -9.74643     23.8852     -37.524           0           0           0
     143       1       2    -7.37347     21.0182    -35.4073           0           0           0
     144       1       3    -3.64888      21.642    -36.6312           0           0           0
     145       1       1     -8.9173     21.4236    -35.5945           0           0           0
     146       1       2     -9.9147     19.0708    -33.7352           0           0           0
     147       1       3    -7.30725      17.034    -34.0766           0           0           0
     148       1       1    -6.47923     21.3468    -34.8889           0           0           0
     149       1       2    -4.41876     18.8403    -34.7027           0           0           0
     150       1       3     -2.7739     19.6756    -32.1574           0           0           0
     151       1       1    -4.90244     24.2023    -34.7291           0           0           0
     152       1       2    -3.10059     25.1464    -37.6015           0           0           0
     153       1       3    -5.65133     26.3408    -35.9518           0           0           0
     154       1       1    -5.29228     26.5383    -35.8836           0           0           0
     155       1       2     -2.7618     25.3156    -37.7668           0           0           0
     156       1       3    0.482118     26.0057    -37.7462           0           0           0
     157       1       1     -5.8539     29.5175    -34.5684           0           0           0
     158       1       2    -6.57397     32.4865    -34.6947           0           0           0
     159       1       3     -3.2389     34.1999    -35.1773           0           0           0
     160       1       1    -6.78734     30.2098    -32.9841           0           0           0
     161       1       2    -9.05902     28.6423    -31.4096           0           0           0
     162       1       3    -9.85817     31.8614    -30.8395           0           0           0
     163       1       1    -7.62529     28.3414    -30.6478           0           0           0
     164       1       2    -5.26272     26.5037    -29.0322           0           0           0
     165       1       3     -4.1657     25.2303    -31.7841           0           0           0
     166       1       1    -6.00183     27.3671    -29.4987           0           0           0
     167       1       2    -6.89541     25.5657    -27.4004           0           0           0
     168       1       3    -9.00838     23.6423      -26.11           0           0           0
     169       1       1     -4.6112     26.1903    -28.9467           0           0           0
     170       1       2    -1.25277     27.8962    -31.2714           0           0           0
     171       1       3   -0.891752     24.7065     -31.212           0           0           0
     172       1       1    -1.43487     25.7722    -30.4814           0           0           0
     173       1       2     -1.1227     28.5736     -31.568           0           0           0
     174       1       3     -3.3502     30.7191    -30.2058           0           0           0
     175       1       1   -0.807412     28.4429    -31.6475           0           0           0
     176       1       2     1.28915     31.4782    -33.5216           0           0           0
     177       1       3    -1.01287     34.8621       -33.1           0           0           0
     178       1       1     0.98093     31.2672    -33.3261           0           0           0
     179       1       2     2.67104     29.6703    -36.9601           0           0           0
     180       1       3     3.42526     26.4323    -39.1693           0           0           0
     181       1       1     2.29682     31.7528    -34.4822           0           0           0
     182       1       2     2.75218      29.628    -37.1819           0           0           0
     183       1       3     3.53242      30.266    -40.5658           0           0           0
     184       1       1     3.25165     34.1487    -34.3795           0           0           0
     185       1       2     1.44889     37.1333    -33.9435           0           0           0
     186       1       3     2.61881     34.3924    -33.0796           0           0           0
     187       1       1     2.99954     36.2232    -34.3583           0           0           0
     188       1       2     4.28249     40.3463    -33.8021           0           0           0
     189       1       3     3.96439     43.3109    -36.3126           0           0           0
     190       1       1     1.31283     37.4481    -33.6084           0           0           0
     191       1       2       4.295     40.2807     -33.772           0           0           0
     192       1       3     4.91262     37.0472     -34.875           0           0           0
     193       1       1   -0.399204     36.5943    -30.8844           0           0           0
     194       1       2    -2.84729     37.7425    -29.5599           0           0           0
     195       1       3    -4.81812      41.074    -28.2473           0           0           0
     196       1       1    0.330563     33.6704    -29.9534           0           0           0
     197       1       2     3.16532     33.1779    -30.1007           0           0           0
     198       1       3     4.59014     31.5733    -32.3512           0           0           0
     199       1       1    -1.53887     32.1127    -27.9121           0           0           0
     200       1       2     -2.6964     30.6312    -25.3956           0           0           0
     201       1       3    -1.85814     32.1585    -27.9462           0           0           0
     202       1       1    -2.70368     30.7797    -25.6768           0           0           0
     203       1       2    -5.30747     32.6523    -26.3911           0           0           0
     204       1       3     -7.6921     35.8924    -26.7235           0           0           0
     205       1       1    -5.21647     30.4254    -25.2273           0           0           0
     206       1       2    -5.69451     32.9317    -26.5807           0           0           0
     207       1       3    -8.43362     31.6663    -25.7901           0           0           0
     208       1       1    -7.68366      32.105     -26.136           0           0           0
     209       1       2    -10.5578     33.9304    -26.9565           0           0           0
     210       1       3    -13.3466     35.3791    -26.3142           0           0           0
     211       1       1    -7.57682     33.2688    -28.4869           0           0           0
     212       1       2    -5.29713     29.8117    -27.8429           0           0           0
     213       1       3    -7.63181     28.5988    -26.0424           0           0           0
     214       1       1    -5.37278     33.4435      -29.55           0           0           0
     215       1       2    -6.12462     36.3357    -29.8306           0           0           0
     216       1       3    -7.81933     33.7325    -29.0113           0           0           0
     217       1       1    -1.11933      32.252    -31.7917           0           0           0
     218       1       2    0.295086     33.9189    -35.6751           0           0           0
     219       1       3   -0.981021     36.7342    -36.0678           0           0           0
     220       1       1    0.355127     28.6328     -34.601           0           0           0
     221       1       2     3.35431     25.9911    -35.7804           0           0           0
     222       1       3     6.11269     24.3801    -38.0882           0           0           0
     223       1       1    0.874847     27.1174    -34.8787           0           0           0
     224       1       2    -1.76854     25.6797    -34.2919           0           0           0
     225       1       3     0.26736     28.0883    -34.9003           0           0           0
     226       1       1   -0.647947      25.664    -34.3118           0           0           0
     227       1       2   -0.463063     23.0808    -36.1562           0           0           0
     228       1       3      3.3946     22.6661    -36.6258           0           0           0
     229       1       1    -2.60571      26.439    -34.1578           0           0           0
     230       1       2    -6.81511     26.5362    -32.9585           0           0           0
     231       1       3    -7.58073     24.6976    -30.4784           0           0           0
     232       1       1     -3.1037     28.4497    -35.3332           0           0           0
     233       1       2    -4.28308     30.6075    -37.5214           0           0           0
     234       1       3    -5.48461     33.5727    -37.5876           0           0           0
     235       1       1    -4.06312     31.3205     -36.656           0           0           0
     236       1       2    -4.35644     30.9791     -39.565           0           0           0
     237       1       3    -2.43169     33.4789    -38.3947           0           0           0
     238       1       1    -2.14879     33.4952     -38.146           0           0           0
     239       1       2    0.708894     31.9387    -38.8524           0           0           0
     240       1       3    0.437294     35.1232    -38.7721           0           0           0
     241       1       1    0.678512     34.5994    -38.7595           0           0           0
     242       1       2    0.511384     38.6711    -38.4306           0           0           0
     243       1       3     1.26242     41.9049    -37.9492           0           0           0
     244       1       1     3.70178     35.3722    -40.1867           0           0           0
     245       1       2     6.87052      35.633     -41.462           0           0           0
     246       1       3     3.86207     36.9262    -40.7021           0           0           0
     247       1       1     4.57262     37.8194    -41.1665           0           0           0
     248       1       2      7.7958      37.124     -41.093           0           0           0
     249       1       3     5.75815     40.3883    -40.3599           0           0           0
     250       1       1     4.96709     40.2696    -39.8305           0           0           0
     251       1       2     3.96216     39.4976    -37.1381           0           0           0
     252       1       3     2.98174     36.5634    -37.3766           0           0           0
     253       1       1     4.15707     39.8381    -37.1129           0           0           0
     254       1       2     6.70093     37.7642    -37.5816           0           0           0
     255       1       3     8.92882     40.0973    -38.4923           0           0           0
     256       1       1      1.5005     39.8306    -35.4737           0           0           0
     257       1       2    0.161812     41.7116    -33.4913           0           0           0
     258       1       3    -1.48329     38.9183    -32.8386           0           0           0
     259       1       1    -1.50427     38.7301     -32.807           0           0           0
     260       1       2    -5.35889     39.5388    -31.1638           0           0           0
     261       1       3    -7.57951     39.2169    -28.4313           0           0           0
     262       1       1    -3.88587     36.6819    -32.2689           0           0           0
     263       1       2    -5.45827     39.6885    -31.1467           0           0           0
     264       1       3    -5.92378     43.5409    -29.8234           0           0           0
     265       1       1    -4.72987     34.6362    -32.5268           0           0           0
     266       1       2    -3.20362     31.2181    -33.6071           0           0           0
     267       1       3   -0.950108     31.0247    -36.1254           0           0           0
     268       1       1     -5.0424     32.4262    -32.0556           0           0           0
     269       1       2    -3.05208     30.9228    -33.5993           0           0           0
     270       1       3    -4.44845     28.4441    -31.9707           0           0           0
     271       1       1    -6.72861     31.0063    -30.2196           0           0           0
     272       1       2    -10.4823     30.2362     -28.065           0           0           0
     273       1       3    -13.5183     32.3825    -28.4201           0           0           0
     274       1       1    -8.25468     30.2006    -28.6015           0           0           0
     275       1       2    -11.1404     29.8257    -27.9765           0           0           0
     276       1       3    -9.53677     27.0493    -28.3521           0           0           0
     277       1       1    -10.0265     27.8763    -27.8937           0           0           0
     278       1       2    -10.7996     23.8055    -28.7686           0           0           0
     279       1       3    -7.09571     22.2497    -28.2731           0           0           0
     280       1       1    -12.1338     25.5171    -27.5454           0           0           0
     281       1       2    -10.6506     22.9953    -29.0887           0           0           0
     282       1       3    -10.1751     20.6282    -26.6561           0           0           0
     283       1       1    -12.5033     23.7643    -29.4186           0           0           0
     284       1       2    -14.3044     24.3265    -32.3061           0           0           0
     285       1       3    -11.6728     22.3388    -32.6029           0           0           0
     286       1       1    -11.2605     21.9139    -31.3293           0           0           0
     287       1       2    -12.2115     19.2502    -29.6515           0           0           0
     288       1       3    -13.8968     21.2647    -27.6155           0           0           0
     289       1       1    -10.6438     19.0649    -30.2118           0           0           0
     290       1       2    -9.65625     16.0323     -31.229           0           0           0
     291       1       3    -9.05879     17.9491    -28.5009           0           0           0
     292       1       1    -8.50509     17.9869     -28.003           0           0           0
     293       1       2    -9.24801     15.6091    -26.1314           0           0           0
     294       1       3    -12.2845     18.0105    -25.0833           0           0           0
     295       1       1    -5.70578     18.5212    -26.8522           0           0           0
     296       1       2    -4.25696     20.2718    -28.9672           0           0           0
     297       1       3    -5.99254     19.3087    -26.5637           0           0           0
     298       1       1    -5.24623      20.477    -25.8825           0           0           0
     299       1       2    -8.46025     21.5018    -23.5715           0           0           0
     300       1       3    -9.02821     18.3577    -24.1179           0           0           0
     301       1       1    -7.01435      21.635    -24.5102           0           0           0
     302       1       2    -9.46499     23.5408    -22.7124           0           0           0
     303       1       3    -9.88216      26.438    -25.0064           0           0           0
     304       1       1    -8.07776     21.6433    -23.2512           0           0           0